 Entering Gaussian System, Link 0=g16
 Input=methanol_p.com
 Output=methanol_p.log
 Initial command:
 /apps/cent7/gaussian/g16-A.03/g16-haswell/g16/l1.exe "/scratch/brown/finej/0062_qm/train_original_basis_set/Gau-4265.inp" -scrdir="/scratch/brown/finej/0062_qm/train_original_basis_set/"
 Entering Link 1 = /apps/cent7/gaussian/g16-A.03/g16-haswell/g16/l1.exe PID=      4268.
  
 Copyright (c) 1988,1990,1992,1993,1995,1998,2003,2009,2016,
            Gaussian, Inc.  All Rights Reserved.
  
 This is part of the Gaussian(R) 16 program.  It is based on
 the Gaussian(R) 09 system (copyright 2009, Gaussian, Inc.),
 the Gaussian(R) 03 system (copyright 2003, Gaussian, Inc.),
 the Gaussian(R) 98 system (copyright 1998, Gaussian, Inc.),
 the Gaussian(R) 94 system (copyright 1995, Gaussian, Inc.),
 the Gaussian 92(TM) system (copyright 1992, Gaussian, Inc.),
 the Gaussian 90(TM) system (copyright 1990, Gaussian, Inc.),
 the Gaussian 88(TM) system (copyright 1988, Gaussian, Inc.),
 the Gaussian 86(TM) system (copyright 1986, Carnegie Mellon
 University), and the Gaussian 82(TM) system (copyright 1983,
 Carnegie Mellon University). Gaussian is a federally registered
 trademark of Gaussian, Inc.
  
 This software contains proprietary and confidential information,
 including trade secrets, belonging to Gaussian, Inc.
  
 This software is provided under written license and may be
 used, copied, transmitted, or stored only in accord with that
 written license.
  
 The following legend is applicable only to US Government
 contracts under FAR:
  
                    RESTRICTED RIGHTS LEGEND
  
 Use, reproduction and disclosure by the US Government is
 subject to restrictions as set forth in subparagraphs (a)
 and (c) of the Commercial Computer Software - Restricted
 Rights clause in FAR 52.227-19.
  
 Gaussian, Inc.
 340 Quinnipiac St., Bldg. 40, Wallingford CT 06492
  
  
 ---------------------------------------------------------------
 Warning -- This program may not be used in any manner that
 competes with the business of Gaussian, Inc. or will provide
 assistance to any competitor of Gaussian, Inc.  The licensee
 of this program is prohibited from giving any competitor of
 Gaussian, Inc. access to this program.  By using this program,
 the user acknowledges that Gaussian, Inc. is engaged in the
 business of creating and licensing software in the field of
 computational chemistry and represents and warrants to the
 licensee that it is not a competitor of Gaussian, Inc. and that
 it will not use this program in any manner prohibited above.
 ---------------------------------------------------------------
  

 Cite this work as:
 Gaussian 16, Revision A.03,
 M. J. Frisch, G. W. Trucks, H. B. Schlegel, G. E. Scuseria, 
 M. A. Robb, J. R. Cheeseman, G. Scalmani, V. Barone, 
 G. A. Petersson, H. Nakatsuji, X. Li, M. Caricato, A. V. Marenich, 
 J. Bloino, B. G. Janesko, R. Gomperts, B. Mennucci, H. P. Hratchian, 
 J. V. Ortiz, A. F. Izmaylov, J. L. Sonnenberg, D. Williams-Young, 
 F. Ding, F. Lipparini, F. Egidi, J. Goings, B. Peng, A. Petrone, 
 T. Henderson, D. Ranasinghe, V. G. Zakrzewski, J. Gao, N. Rega, 
 G. Zheng, W. Liang, M. Hada, M. Ehara, K. Toyota, R. Fukuda, 
 J. Hasegawa, M. Ishida, T. Nakajima, Y. Honda, O. Kitao, H. Nakai, 
 T. Vreven, K. Throssell, J. A. Montgomery, Jr., J. E. Peralta, 
 F. Ogliaro, M. J. Bearpark, J. J. Heyd, E. N. Brothers, K. N. Kudin, 
 V. N. Staroverov, T. A. Keith, R. Kobayashi, J. Normand, 
 K. Raghavachari, A. P. Rendell, J. C. Burant, S. S. Iyengar, 
 J. Tomasi, M. Cossi, J. M. Millam, M. Klene, C. Adamo, R. Cammi, 
 J. W. Ochterski, R. L. Martin, K. Morokuma, O. Farkas, 
 J. B. Foresman, and D. J. Fox, Gaussian, Inc., Wallingford CT, 2016.
 
 ******************************************
 Gaussian 16:  ES64L-G16RevA.03 25-Dec-2016
                13-Oct-2019 
 ******************************************
 %chk=methanol_p.chk
 %nprocshared=24
 Will use up to   24 processors via shared memory.
 %mem=10GB
 --------------------------------------------------------------
 #P opt freq b3lyp/6-31g(d) geom=connectivity temperature=0.001
 --------------------------------------------------------------
 1/18=20,19=15,26=3,38=1,57=2,112=-1000/1,3;
 2/9=110,12=2,17=6,18=5,40=1/2;
 3/5=1,6=6,7=1,11=2,25=1,30=1,71=1,74=-5/1,2,3;
 4//1;
 5/5=2,38=5/2;
 6/7=2,8=2,9=2,10=2,28=1/1;
 7//1,2,3,16;
 1/18=20,19=15,26=3/3(2);
 2/9=110/2;
 99//99;
 2/9=110/2;
 3/5=1,6=6,7=1,11=2,25=1,30=1,71=1,74=-5/1,2,3;
 4/5=5,16=3,69=1/1;
 5/5=2,38=5/2;
 7//1,2,3,16;
 1/18=20,19=15,26=3/3(-5);
 2/9=110/2;
 6/7=2,8=2,9=2,10=2,19=2,28=1/1;
 99/9=1/99;
 Leave Link    1 at Sun Oct 13 20:18:13 2019, MaxMem=  1342177280 cpu:               2.3 elap:               0.4
 (Enter /apps/cent7/gaussian/g16-A.03/g16-haswell/g16/l101.exe)
 -------------------
 Title Card Required
 -------------------
 Symbolic Z-matrix:
 Charge =  1 Multiplicity = 1
 C                    -0.12989   0.07215   0.77283 
 H                     0.22672  -0.93668   0.77291 
 H                     0.22678   0.57659   1.64646 
 H                    -1.19989   0.0722    0.77281 
 O                     0.34684   0.74615  -0.39479 
 H                    -0.2062    1.51078  -0.57112 
 H                     0.31467   0.1481   -1.14506 
 
 ITRead=  0  0  0  0  0  0  0
 MicOpt= -1 -1 -1 -1 -1 -1 -1
 NAtoms=      7 NQM=        7 NQMF=       0 NMMI=      0 NMMIF=      0
                NMic=       0 NMicF=      0.
                    Isotopes and Nuclear Properties:
 (Nuclear quadrupole moments (NQMom) in fm**2, nuclear magnetic moments (NMagM)
  in nuclear magnetons)

  Atom         1           2           3           4           5           6           7
 IAtWgt=          12           1           1           1          16           1           1
 AtmWgt=  12.0000000   1.0078250   1.0078250   1.0078250  15.9949146   1.0078250   1.0078250
 NucSpn=           0           1           1           1           0           1           1
 AtZEff=  -0.0000000  -0.0000000  -0.0000000  -0.0000000  -0.0000000  -0.0000000  -0.0000000
 NQMom=    0.0000000   0.0000000   0.0000000   0.0000000   0.0000000   0.0000000   0.0000000
 NMagM=    0.0000000   2.7928460   2.7928460   2.7928460   0.0000000   2.7928460   2.7928460
 AtZNuc=   6.0000000   1.0000000   1.0000000   1.0000000   8.0000000   1.0000000   1.0000000
 Leave Link  101 at Sun Oct 13 20:18:18 2019, MaxMem=  1342177280 cpu:              23.6 elap:               4.9
 (Enter /apps/cent7/gaussian/g16-A.03/g16-haswell/g16/l103.exe)

 GradGradGradGradGradGradGradGradGradGradGradGradGradGradGradGradGradGrad
 Berny optimization.
 Initialization pass.
                           ----------------------------
                           !    Initial Parameters    !
                           ! (Angstroms and Degrees)  !
 --------------------------                            --------------------------
 ! Name  Definition              Value          Derivative Info.                !
 --------------------------------------------------------------------------------
 ! R1    R(1,2)                  1.07           estimate D2E/DX2                !
 ! R2    R(1,3)                  1.07           estimate D2E/DX2                !
 ! R3    R(1,4)                  1.07           estimate D2E/DX2                !
 ! R4    R(1,5)                  1.43           estimate D2E/DX2                !
 ! R5    R(5,6)                  0.96           estimate D2E/DX2                !
 ! R6    R(5,7)                  0.96           estimate D2E/DX2                !
 ! A1    A(2,1,3)              109.4712         estimate D2E/DX2                !
 ! A2    A(2,1,4)              109.4712         estimate D2E/DX2                !
 ! A3    A(2,1,5)              109.4712         estimate D2E/DX2                !
 ! A4    A(3,1,4)              109.4712         estimate D2E/DX2                !
 ! A5    A(3,1,5)              109.4712         estimate D2E/DX2                !
 ! A6    A(4,1,5)              109.4712         estimate D2E/DX2                !
 ! A7    A(1,5,6)              109.4712         estimate D2E/DX2                !
 ! A8    A(1,5,7)              109.4712         estimate D2E/DX2                !
 ! A9    A(6,5,7)              109.4712         estimate D2E/DX2                !
 ! D1    D(2,1,5,6)            159.3626         estimate D2E/DX2                !
 ! D2    D(2,1,5,7)             39.3626         estimate D2E/DX2                !
 ! D3    D(3,1,5,6)            -80.6374         estimate D2E/DX2                !
 ! D4    D(3,1,5,7)            159.3626         estimate D2E/DX2                !
 ! D5    D(4,1,5,6)             39.3626         estimate D2E/DX2                !
 ! D6    D(4,1,5,7)            -80.6374         estimate D2E/DX2                !
 --------------------------------------------------------------------------------
 Trust Radius=3.00D-01 FncErr=1.00D-07 GrdErr=1.00D-06 EigMax=2.50D+02 EigMin=1.00D-04
 Number of steps in this run=     31 maximum allowed number of steps=    100.
 GradGradGradGradGradGradGradGradGradGradGradGradGradGradGradGradGradGrad

 Leave Link  103 at Sun Oct 13 20:18:18 2019, MaxMem=  1342177280 cpu:               1.3 elap:               0.2
 (Enter /apps/cent7/gaussian/g16-A.03/g16-haswell/g16/l202.exe)
                          Input orientation:                          
 ---------------------------------------------------------------------
 Center     Atomic      Atomic             Coordinates (Angstroms)
 Number     Number       Type             X           Y           Z
 ---------------------------------------------------------------------
      1          6           0       -0.129891    0.072146    0.772833
      2          1           0        0.226722   -0.936678    0.772909
      3          1           0        0.226782    0.576588    1.646459
      4          1           0       -1.199891    0.072203    0.772808
      5          8           0        0.346839    0.746151   -0.394791
      6          1           0       -0.206202    1.510777   -0.571123
      7          1           0        0.314669    0.148098   -1.145056
 ---------------------------------------------------------------------
                    Distance matrix (angstroms):
                    1          2          3          4          5
     1  C    0.000000
     2  H    1.070000   0.000000
     3  H    1.070000   1.747303   0.000000
     4  H    1.070000   1.747303   1.747303   0.000000
     5  O    1.430000   2.051796   2.051796   2.051796   0.000000
     6  H    1.970203   2.825577   2.444965   2.205235   0.960000
     7  H    1.970203   2.205235   2.825577   2.444965   0.960000
                    6          7
     6  H    0.000000
     7  H    1.567673   0.000000
 Stoichiometry    CH5O(1+)
 Framework group  C1[X(CH5O)]
 Deg. of freedom    15
 Full point group                 C1      NOp   1
 Largest Abelian subgroup         C1      NOp   1
 Largest concise Abelian subgroup C1      NOp   1
                         Standard orientation:                         
 ---------------------------------------------------------------------
 Center     Atomic      Atomic             Coordinates (Angstroms)
 Number     Number       Type             X           Y           Z
 ---------------------------------------------------------------------
      1          6           0       -0.731419    0.000000    0.013997
      2          1           0       -1.100637    0.995367   -0.119505
      3          1           0       -1.152489   -0.639811   -0.733158
      4          1           0       -1.007330   -0.355555    0.984746
      5          8           0        0.693503    0.000000   -0.106406
      6          1           0        1.050471   -0.783837    0.317592
      7          1           0        1.050471    0.783837    0.317592
 ---------------------------------------------------------------------
 Rotational constants (GHZ):         108.4919873          23.2020577          22.2857580
 Leave Link  202 at Sun Oct 13 20:18:19 2019, MaxMem=  1342177280 cpu:               2.8 elap:               0.6
 (Enter /apps/cent7/gaussian/g16-A.03/g16-haswell/g16/l301.exe)
 Standard basis: 6-31G(d) (6D, 7F)
 Ernie: Thresh=  0.10000D-02 Tol=  0.10000D-05 Strict=F.
 There are    40 symmetry adapted cartesian basis functions of A   symmetry.
 There are    40 symmetry adapted basis functions of A   symmetry.
    40 basis functions,    76 primitive gaussians,    40 cartesian basis functions
     9 alpha electrons        9 beta electrons
       nuclear repulsion energy        47.4306418188 Hartrees.
 IExCor=  402 DFT=T Ex+Corr=B3LYP ExCW=0 ScaHFX=  0.200000
 ScaDFX=  0.800000  0.720000  1.000000  0.810000 ScalE2=  1.000000  1.000000
 IRadAn=      5 IRanWt=     -1 IRanGd=            0 ICorTp=0 IEmpDi=  4
 NAtoms=    7 NActive=    7 NUniq=    7 SFac= 1.00D+00 NAtFMM=   60 NAOKFM=F Big=F
 Integral buffers will be    131072 words long.
 Raffenetti 2 integral format.
 Two-electron integral symmetry is turned on.
 Leave Link  301 at Sun Oct 13 20:18:19 2019, MaxMem=  1342177280 cpu:               2.6 elap:               0.6
 (Enter /apps/cent7/gaussian/g16-A.03/g16-haswell/g16/l302.exe)
 NPDir=0 NMtPBC=     1 NCelOv=     1 NCel=       1 NClECP=     1 NCelD=      1
         NCelK=      1 NCelE2=     1 NClLst=     1 CellRange=     0.0.
 One-electron integrals computed using PRISM.
 One-electron integral symmetry used in STVInt
 NBasis=    40 RedAO= T EigKep=  9.08D-03  NBF=    40
 NBsUse=    40 1.00D-06 EigRej= -1.00D+00 NBFU=    40
 Precomputing XC quadrature grid using
 IXCGrd= 4 IRadAn=           5 IRanWt=          -1 IRanGd=           0 AccXCQ= 0.00D+00.
 Generated NRdTot=       0 NPtTot=           0 NUsed=           0 NTot=          32
 NSgBfM=    40    40    40    40    40 MxSgAt=     7 MxSgA2=     7.
 Leave Link  302 at Sun Oct 13 20:18:23 2019, MaxMem=  1342177280 cpu:              15.6 elap:               3.2
 (Enter /apps/cent7/gaussian/g16-A.03/g16-haswell/g16/l303.exe)
 DipDrv:  MaxL=1.
 Leave Link  303 at Sun Oct 13 20:18:23 2019, MaxMem=  1342177280 cpu:               3.8 elap:               0.8
 (Enter /apps/cent7/gaussian/g16-A.03/g16-haswell/g16/l401.exe)
 ExpMin= 1.61D-01 ExpMax= 5.48D+03 ExpMxC= 8.25D+02 IAcc=3 IRadAn=         5 AccDes= 0.00D+00
 Harris functional with IExCor=  402 and IRadAn=       5 diagonalized for initial guess.
 HarFok:  IExCor=  402 AccDes= 0.00D+00 IRadAn=         5 IDoV= 1 UseB2=F ITyADJ=14
 ICtDFT=  3500011 ScaDFX=  1.000000  1.000000  1.000000  1.000000
 FoFCou: FMM=F IPFlag=           0 FMFlag=      100000 FMFlg1=           0
         NFxFlg=           0 DoJE=T BraDBF=F KetDBF=T FulRan=T
         wScrn=  0.000000 ICntrl=       500 IOpCl=  0 I1Cent=   200000004 NGrid=           0
         NMat0=    1 NMatS0=      1 NMatT0=    0 NMatD0=    1 NMtDS0=    0 NMtDT0=    0
 Petite list used in FoFCou.
 Harris En= -116.100269779800    
 JPrj=0 DoOrth=F DoCkMO=F.
 Leave Link  401 at Sun Oct 13 20:18:28 2019, MaxMem=  1342177280 cpu:              22.4 elap:               4.7
 (Enter /apps/cent7/gaussian/g16-A.03/g16-haswell/g16/l502.exe)
 Keep R1 ints in memory in canonical form, NReq=21049463.
 FoFCou: FMM=F IPFlag=           0 FMFlag=           0 FMFlg1=           0
         NFxFlg=           0 DoJE=F BraDBF=F KetDBF=F FulRan=T
         wScrn=  0.000000 ICntrl=       600 IOpCl=  0 I1Cent=           0 NGrid=           0
         NMat0=    1 NMatS0=    820 NMatT0=    0 NMatD0=    1 NMtDS0=    0 NMtDT0=    0
 Symmetry not used in FoFCou.
 Two-electron integral symmetry not used.
 Closed shell SCF:
 Using DIIS extrapolation, IDIIS=  1040.
 NGot=  1342177280 LenX=  1341835823 LenY=  1341833782
 Requested convergence on RMS density matrix=1.00D-08 within 128 cycles.
 Requested convergence on MAX density matrix=1.00D-06.
 Requested convergence on             energy=1.00D-06.
 No special actions if energy rises.
 Integral accuracy reduced to 1.0D-05 until final iterations.

 Cycle   1  Pass 0  IDiag  1:
 E= -115.971036262948    
 DIIS: error= 2.92D-02 at cycle   1 NSaved=   1.
 NSaved= 1 IEnMin= 1 EnMin= -115.971036262948     IErMin= 1 ErrMin= 2.92D-02
 ErrMax= 2.92D-02  0.00D+00 EMaxC= 1.00D-01 BMatC= 3.72D-02 BMatP= 3.72D-02
 IDIUse=3 WtCom= 7.08D-01 WtEn= 2.92D-01
 Coeff-Com:  0.100D+01
 Coeff-En:   0.100D+01
 Coeff:      0.100D+01
 Gap=     0.402 Goal=   None    Shift=    0.000
 GapD=    0.402 DampG=2.000 DampE=0.500 DampFc=1.0000 IDamp=-1.
 RMSDP=7.04D-03 MaxDP=7.37D-02              OVMax= 8.26D-02

 Cycle   2  Pass 0  IDiag  1:
 E= -115.984219633153     Delta-E=       -0.013183370205 Rises=F Damp=F
 DIIS: error= 2.92D-02 at cycle   2 NSaved=   2.
 NSaved= 2 IEnMin= 2 EnMin= -115.984219633153     IErMin= 2 ErrMin= 2.92D-02
 ErrMax= 2.92D-02  0.00D+00 EMaxC= 1.00D-01 BMatC= 2.46D-02 BMatP= 3.72D-02
 IDIUse=3 WtCom= 7.08D-01 WtEn= 2.92D-01
 Coeff-Com:  0.444D+00 0.556D+00
 Coeff-En:   0.363D+00 0.637D+00
 Coeff:      0.420D+00 0.580D+00
 Gap=     0.398 Goal=   None    Shift=    0.000
 RMSDP=3.47D-03 MaxDP=4.57D-02 DE=-1.32D-02 OVMax= 4.72D-02

 Cycle   3  Pass 0  IDiag  1:
 E= -116.006222065253     Delta-E=       -0.022002432100 Rises=F Damp=F
 DIIS: error= 4.63D-03 at cycle   3 NSaved=   3.
 NSaved= 3 IEnMin= 3 EnMin= -116.006222065253     IErMin= 3 ErrMin= 4.63D-03
 ErrMax= 4.63D-03  0.00D+00 EMaxC= 1.00D-01 BMatC= 1.14D-03 BMatP= 2.46D-02
 IDIUse=3 WtCom= 9.54D-01 WtEn= 4.63D-02
 Coeff-Com:  0.103D+00 0.229D+00 0.669D+00
 Coeff-En:   0.000D+00 0.000D+00 0.100D+01
 Coeff:      0.978D-01 0.218D+00 0.684D+00
 Gap=     0.398 Goal=   None    Shift=    0.000
 RMSDP=6.74D-04 MaxDP=7.17D-03 DE=-2.20D-02 OVMax= 8.58D-03

 Cycle   4  Pass 0  IDiag  1:
 E= -116.007143595431     Delta-E=       -0.000921530178 Rises=F Damp=F
 DIIS: error= 1.19D-03 at cycle   4 NSaved=   4.
 NSaved= 4 IEnMin= 4 EnMin= -116.007143595431     IErMin= 4 ErrMin= 1.19D-03
 ErrMax= 1.19D-03  0.00D+00 EMaxC= 1.00D-01 BMatC= 8.01D-05 BMatP= 1.14D-03
 IDIUse=3 WtCom= 9.88D-01 WtEn= 1.19D-02
 Coeff-Com:  0.278D-01 0.729D-01 0.304D+00 0.595D+00
 Coeff-En:   0.000D+00 0.000D+00 0.000D+00 0.100D+01
 Coeff:      0.274D-01 0.720D-01 0.300D+00 0.600D+00
 Gap=     0.397 Goal=   None    Shift=    0.000
 RMSDP=1.59D-04 MaxDP=2.47D-03 DE=-9.22D-04 OVMax= 2.33D-03

 Cycle   5  Pass 0  IDiag  1:
 E= -116.007192593935     Delta-E=       -0.000048998504 Rises=F Damp=F
 DIIS: error= 4.10D-04 at cycle   5 NSaved=   5.
 NSaved= 5 IEnMin= 5 EnMin= -116.007192593935     IErMin= 5 ErrMin= 4.10D-04
 ErrMax= 4.10D-04  0.00D+00 EMaxC= 1.00D-01 BMatC= 1.01D-05 BMatP= 8.01D-05
 IDIUse=3 WtCom= 9.96D-01 WtEn= 4.10D-03
 Coeff-Com: -0.383D-03 0.636D-02 0.685D-01 0.305D+00 0.621D+00
 Coeff-En:   0.000D+00 0.000D+00 0.000D+00 0.535D-01 0.947D+00
 Coeff:     -0.382D-03 0.634D-02 0.683D-01 0.304D+00 0.622D+00
 Gap=     0.397 Goal=   None    Shift=    0.000
 RMSDP=4.42D-05 MaxDP=6.38D-04 DE=-4.90D-05 OVMax= 5.76D-04

 Cycle   6  Pass 0  IDiag  1:
 E= -116.007199872557     Delta-E=       -0.000007278622 Rises=F Damp=F
 DIIS: error= 2.14D-05 at cycle   6 NSaved=   6.
 NSaved= 6 IEnMin= 6 EnMin= -116.007199872557     IErMin= 6 ErrMin= 2.14D-05
 ErrMax= 2.14D-05  0.00D+00 EMaxC= 1.00D-01 BMatC= 1.53D-08 BMatP= 1.01D-05
 IDIUse=1 WtCom= 1.00D+00 WtEn= 0.00D+00
 Coeff-Com: -0.270D-03 0.406D-03 0.839D-02 0.396D-01 0.104D+00 0.847D+00
 Coeff:     -0.270D-03 0.406D-03 0.839D-02 0.396D-01 0.104D+00 0.847D+00
 Gap=     0.397 Goal=   None    Shift=    0.000
 RMSDP=2.90D-06 MaxDP=3.18D-05 DE=-7.28D-06 OVMax= 4.08D-05

 Initial convergence to 1.0D-05 achieved.  Increase integral accuracy.
 Cycle   7  Pass 1  IDiag  1:
 E= -116.007201469833     Delta-E=       -0.000001597276 Rises=F Damp=F
 DIIS: error= 2.51D-06 at cycle   1 NSaved=   1.
 NSaved= 1 IEnMin= 1 EnMin= -116.007201469833     IErMin= 1 ErrMin= 2.51D-06
 ErrMax= 2.51D-06  0.00D+00 EMaxC= 1.00D-01 BMatC= 2.23D-10 BMatP= 2.23D-10
 IDIUse=1 WtCom= 1.00D+00 WtEn= 0.00D+00
 Coeff-Com:  0.100D+01
 Coeff:      0.100D+01
 Gap=     0.397 Goal=   None    Shift=    0.000
 RMSDP=2.90D-06 MaxDP=3.18D-05 DE=-1.60D-06 OVMax= 6.99D-06

 Cycle   8  Pass 1  IDiag  1:
 E= -116.007201470006     Delta-E=       -0.000000000173 Rises=F Damp=F
 DIIS: error= 1.11D-06 at cycle   2 NSaved=   2.
 NSaved= 2 IEnMin= 2 EnMin= -116.007201470006     IErMin= 2 ErrMin= 1.11D-06
 ErrMax= 1.11D-06  0.00D+00 EMaxC= 1.00D-01 BMatC= 6.50D-11 BMatP= 2.23D-10
 IDIUse=1 WtCom= 1.00D+00 WtEn= 0.00D+00
 Coeff-Com:  0.331D+00 0.669D+00
 Coeff:      0.331D+00 0.669D+00
 Gap=     0.397 Goal=   None    Shift=    0.000
 RMSDP=1.80D-07 MaxDP=2.30D-06 DE=-1.73D-10 OVMax= 2.33D-06

 Cycle   9  Pass 1  IDiag  1:
 E= -116.007201470050     Delta-E=       -0.000000000044 Rises=F Damp=F
 DIIS: error= 5.32D-07 at cycle   3 NSaved=   3.
 NSaved= 3 IEnMin= 3 EnMin= -116.007201470050     IErMin= 3 ErrMin= 5.32D-07
 ErrMax= 5.32D-07  0.00D+00 EMaxC= 1.00D-01 BMatC= 1.55D-11 BMatP= 6.50D-11
 IDIUse=1 WtCom= 1.00D+00 WtEn= 0.00D+00
 Coeff-Com:  0.124D+00 0.365D+00 0.511D+00
 Coeff:      0.124D+00 0.365D+00 0.511D+00
 Gap=     0.397 Goal=   None    Shift=    0.000
 RMSDP=5.64D-08 MaxDP=9.04D-07 DE=-4.43D-11 OVMax= 7.87D-07

 Cycle  10  Pass 1  IDiag  1:
 E= -116.007201470061     Delta-E=       -0.000000000010 Rises=F Damp=F
 DIIS: error= 5.69D-08 at cycle   4 NSaved=   4.
 NSaved= 4 IEnMin= 4 EnMin= -116.007201470061     IErMin= 4 ErrMin= 5.69D-08
 ErrMax= 5.69D-08  0.00D+00 EMaxC= 1.00D-01 BMatC= 1.86D-13 BMatP= 1.55D-11
 IDIUse=1 WtCom= 1.00D+00 WtEn= 0.00D+00
 Coeff-Com: -0.307D-02 0.235D-01 0.111D+00 0.868D+00
 Coeff:     -0.307D-02 0.235D-01 0.111D+00 0.868D+00
 Gap=     0.397 Goal=   None    Shift=    0.000
 RMSDP=9.20D-09 MaxDP=1.23D-07 DE=-1.03D-11 OVMax= 1.14D-07

 SCF Done:  E(RB3LYP) =  -116.007201470     A.U. after   10 cycles
            NFock= 10  Conv=0.92D-08     -V/T= 2.0070
 KE= 1.152027704840D+02 PE=-3.604812186265D+02 EE= 8.184060485367D+01
 Leave Link  502 at Sun Oct 13 20:18:47 2019, MaxMem=  1342177280 cpu:              89.2 elap:              18.6
 (Enter /apps/cent7/gaussian/g16-A.03/g16-haswell/g16/l601.exe)
 Copying SCF densities to generalized density rwf, IOpCl= 0 IROHF=0.

 **********************************************************************

            Population analysis using the SCF density.

 **********************************************************************

 Orbital symmetries:
       Occupied  (A) (A) (A) (A) (A) (A) (A) (A) (A)
       Virtual   (A) (A) (A) (A) (A) (A) (A) (A) (A) (A) (A) (A)
                 (A) (A) (A) (A) (A) (A) (A) (A) (A) (A) (A) (A)
                 (A) (A) (A) (A) (A) (A) (A)
 The electronic state is 1-A.
 Alpha  occ. eigenvalues --  -19.55671 -10.48516  -1.43960  -0.99773  -0.93080
 Alpha  occ. eigenvalues --   -0.81044  -0.75203  -0.66002  -0.62564
 Alpha virt. eigenvalues --   -0.22830  -0.14637  -0.10145  -0.06949  -0.04472
 Alpha virt. eigenvalues --   -0.04115   0.26389   0.29826   0.30741   0.50021
 Alpha virt. eigenvalues --    0.51280   0.59281   0.64417   0.65018   0.66595
 Alpha virt. eigenvalues --    0.76003   0.77635   0.81748   1.14201   1.19933
 Alpha virt. eigenvalues --    1.23199   1.69035   1.77735   1.79917   1.92489
 Alpha virt. eigenvalues --    2.04978   2.07534   2.27126   2.44604   3.43086
 Alpha virt. eigenvalues --    3.96171
          Condensed to atoms (all electrons):
               1          2          3          4          5          6
     1  C    5.059618   0.380513   0.380543   0.381281   0.167229  -0.015928
     2  H    0.380513   0.405814  -0.016286  -0.022498  -0.018564   0.002695
     3  H    0.380543  -0.016286   0.399278  -0.025227  -0.023232  -0.000502
     4  H    0.381281  -0.022498  -0.025227   0.445654  -0.027240  -0.003606
     5  O    0.167229  -0.018564  -0.023232  -0.027240   7.895248   0.261543
     6  H   -0.015928   0.002695  -0.000502  -0.003606   0.261543   0.242909
     7  H   -0.015848  -0.004095   0.002787  -0.000482   0.261289  -0.010496
               7
     1  C   -0.015848
     2  H   -0.004095
     3  H    0.002787
     4  H   -0.000482
     5  O    0.261289
     6  H   -0.010496
     7  H    0.243727
 Mulliken charges:
               1
     1  C   -0.337408
     2  H    0.272421
     3  H    0.282639
     4  H    0.252118
     5  O   -0.516274
     6  H    0.523384
     7  H    0.523119
 Sum of Mulliken charges =   1.00000
 Mulliken charges with hydrogens summed into heavy atoms:
               1
     1  C    0.469771
     5  O    0.530229
 Electronic spatial extent (au):  <R**2>=             81.4085
 Charge=              1.0000 electrons
 Dipole moment (field-independent basis, Debye):
    X=              1.4863    Y=              0.0276    Z=              1.5633  Tot=              2.1572
 Quadrupole moment (field-independent basis, Debye-Ang):
   XX=             -6.2808   YY=             -8.3126   ZZ=            -11.3804
   XY=             -0.0475   XZ=              2.0119   YZ=              0.0352
 Traceless Quadrupole moment (field-independent basis, Debye-Ang):
   XX=              2.3771   YY=              0.3454   ZZ=             -2.7225
   XY=             -0.0475   XZ=              2.0119   YZ=              0.0352
 Octapole moment (field-independent basis, Debye-Ang**2):
  XXX=              6.1915  YYY=              0.8583  ZZZ=              1.1849  XYY=              3.5893
  XXY=              0.0433  XXZ=              1.9485  XZZ=              0.7069  YZZ=             -0.7872
  YYZ=              0.7437  XYZ=             -0.1161
 Hexadecapole moment (field-independent basis, Debye-Ang**3):
 XXXX=            -48.3828 YYYY=            -13.9832 ZZZZ=            -15.4257 XXXY=             -0.0595
 XXXZ=              3.3303 YYYX=             -1.0374 YYYZ=              0.0866 ZZZX=              0.7706
 ZZZY=             -0.0408 XXYY=             -7.4129 XXZZ=            -10.7198 YYZZ=             -4.9452
 XXYZ=              0.2332 YYXZ=              1.9309 ZZXY=              0.9305
 N-N= 4.743064181879D+01 E-N=-3.604812221414D+02  KE= 1.152027704840D+02
 No NMR shielding tensors so no spin-rotation constants.
 Leave Link  601 at Sun Oct 13 20:18:49 2019, MaxMem=  1342177280 cpu:              13.6 elap:               2.8
 (Enter /apps/cent7/gaussian/g16-A.03/g16-haswell/g16/l701.exe)
 ... and contract with generalized density number  0.
 Compute integral first derivatives.
 Leave Link  701 at Sun Oct 13 20:18:52 2019, MaxMem=  1342177280 cpu:              13.0 elap:               2.8
 (Enter /apps/cent7/gaussian/g16-A.03/g16-haswell/g16/l702.exe)
 L702 exits ... SP integral derivatives will be done elsewhere.
 Leave Link  702 at Sun Oct 13 20:18:53 2019, MaxMem=  1342177280 cpu:               2.2 elap:               0.4
 (Enter /apps/cent7/gaussian/g16-A.03/g16-haswell/g16/l703.exe)
 Integral derivatives from FoFJK, PRISM(SPDF).
 Compute integral first derivatives, UseDBF=F ICtDFT=           0.
 Calling FoFJK, ICntrl=      2127 FMM=F ISym2X=0 I1Cent= 0 IOpClX= 0 NMat=1 NMatS=1 NMatT=0.
 FoFJK:  IHMeth= 1 ICntrl=    2127 DoSepK=F KAlg= 0 I1Cent=           0 FoldK=F
 IRaf=         0 NMat=       1 IRICut=       1 DoRegI=T DoRafI=F ISym2E= 0 IDoP0=0 IntGTp=1.
 FoFCou: FMM=F IPFlag=           0 FMFlag=      100000 FMFlg1=         800
         NFxFlg=           0 DoJE=F BraDBF=F KetDBF=F FulRan=T
         wScrn=  0.000000 ICntrl=      2127 IOpCl=  0 I1Cent=           0 NGrid=           0
         NMat0=    1 NMatS0=      1 NMatT0=    0 NMatD0=    1 NMtDS0=    0 NMtDT0=    0
 Symmetry not used in FoFCou.
 Leave Link  703 at Sun Oct 13 20:18:56 2019, MaxMem=  1342177280 cpu:              17.9 elap:               3.7
 (Enter /apps/cent7/gaussian/g16-A.03/g16-haswell/g16/l716.exe)
 Dipole        = 5.84736992D-01 1.08549647D-02 6.15055038D-01
 ***** Axes restored to original set *****
 -------------------------------------------------------------------
 Center     Atomic                   Forces (Hartrees/Bohr)
 Number     Number              X              Y              Z
 -------------------------------------------------------------------
      1        6          -0.016171899   -0.018629860    0.037409294
      2        1           0.009118236   -0.011638496   -0.004192674
      3        1           0.009011134    0.010447027    0.007641281
      4        1          -0.016091088   -0.000347696   -0.001782733
      5        8           0.018984778    0.006751894   -0.005753369
      6        1          -0.007713726    0.022787736   -0.009603853
      7        1           0.002862566   -0.009370605   -0.023717947
 -------------------------------------------------------------------
 Cartesian Forces:  Max     0.037409294 RMS     0.014677252
 Leave Link  716 at Sun Oct 13 20:18:57 2019, MaxMem=  1342177280 cpu:               1.9 elap:               0.4
 (Enter /apps/cent7/gaussian/g16-A.03/g16-haswell/g16/l103.exe)

 GradGradGradGradGradGradGradGradGradGradGradGradGradGradGradGradGradGrad
 Berny optimization.
 FormGI is forming the generalized inverse of G from B-inverse, IUseBI=4.
 Internal  Forces:  Max     0.046123766 RMS     0.014724624
 Search for a local minimum.
 Step number   1 out of a maximum of   31
 All quantities printed in internal units (Hartrees-Bohrs-Radians)
 RMS Force = .14725D-01 SwitMx=.10000D-02 MixMth= 1
 Mixed Optimization -- RFO/linear search
 Second derivative matrix not updated -- first step.
 ITU=  0
     Eigenvalues ---    0.01295   0.04656   0.07831   0.07831   0.16000
     Eigenvalues ---    0.16000   0.16000   0.16000   0.16000   0.37230
     Eigenvalues ---    0.37230   0.37230   0.40989   0.55473   0.55473
 RFO step:  Lambda=-1.31012091D-02 EMin= 1.29493787D-02
 Linear search not attempted -- first point.
 Iteration  1 RMS(Cart)=  0.06961494 RMS(Int)=  0.00372091
 Iteration  2 RMS(Cart)=  0.00267858 RMS(Int)=  0.00244324
 Iteration  3 RMS(Cart)=  0.00000498 RMS(Int)=  0.00244323
 Iteration  4 RMS(Cart)=  0.00000002 RMS(Int)=  0.00244323
 ITry= 1 IFail=0 DXMaxC= 1.22D-01 DCOld= 1.00D+10 DXMaxT= 3.00D-01 DXLimC= 3.00D+00 Rises=F
 Variable       Old X    -DE/DX   Delta X   Delta X   Delta X     New X
                                 (Linear)    (Quad)   (Total)
    R1        2.02201   0.01401   0.00000   0.03636   0.03636   2.05836
    R2        2.02201   0.01417   0.00000   0.03676   0.03676   2.05877
    R3        2.02201   0.01609   0.00000   0.04175   0.04175   2.06376
    R4        2.70231   0.04612   0.00000   0.10904   0.10904   2.81135
    R5        1.81414   0.02436   0.00000   0.04290   0.04290   1.85703
    R6        1.81414   0.02428   0.00000   0.04276   0.04276   1.85689
    A1        1.91063   0.00513   0.00000   0.01750   0.01538   1.92601
    A2        1.91063   0.00411   0.00000   0.02904   0.02913   1.93976
    A3        1.91063  -0.00749   0.00000  -0.04671  -0.04757   1.86306
    A4        1.91063   0.00507   0.00000   0.03616   0.03629   1.94692
    A5        1.91063  -0.00865   0.00000  -0.05261  -0.05345   1.85718
    A6        1.91063   0.00182   0.00000   0.01661   0.01671   1.92734
    A7        1.91063   0.01171   0.00000   0.08487   0.08027   1.99090
    A8        1.91063   0.01156   0.00000   0.08398   0.07937   1.99001
    A9        1.91063  -0.00694   0.00000  -0.00570  -0.01310   1.89754
    D1        2.78140   0.00519   0.00000   0.08969   0.09049   2.87190
    D2        0.68701  -0.00056   0.00000  -0.00673  -0.00944   0.67756
    D3       -1.40739   0.00159   0.00000   0.05031   0.05304  -1.35435
    D4        2.78140  -0.00416   0.00000  -0.04611  -0.04690   2.73451
    D5        0.68701   0.00362   0.00000   0.07255   0.07429   0.76130
    D6       -1.40739  -0.00213   0.00000  -0.02386  -0.02564  -1.43303
         Item               Value     Threshold  Converged?
 Maximum Force            0.046124     0.000450     NO 
 RMS     Force            0.014725     0.000300     NO 
 Maximum Displacement     0.122279     0.001800     NO 
 RMS     Displacement     0.069052     0.001200     NO 
 Predicted change in Energy=-7.013359D-03
 Lowest energy point so far.  Saving SCF results.
 GradGradGradGradGradGradGradGradGradGradGradGradGradGradGradGradGradGrad

 Leave Link  103 at Sun Oct 13 20:19:11 2019, MaxMem=  1342177280 cpu:              66.1 elap:              13.8
 (Enter /apps/cent7/gaussian/g16-A.03/g16-haswell/g16/l202.exe)
                          Input orientation:                          
 ---------------------------------------------------------------------
 Center     Atomic      Atomic             Coordinates (Angstroms)
 Number     Number       Type             X           Y           Z
 ---------------------------------------------------------------------
      1          6           0       -0.163528    0.047019    0.813753
      2          1           0        0.244357   -0.962611    0.786967
      3          1           0        0.242075    0.597155    1.662130
      4          1           0       -1.255352    0.030378    0.831403
      5          8           0        0.325545    0.739478   -0.408772
      6          1           0       -0.159438    1.567222   -0.621680
      7          1           0        0.345368    0.170645   -1.209763
 ---------------------------------------------------------------------
                    Distance matrix (angstroms):
                    1          2          3          4          5
     1  C    0.000000
     2  H    1.089239   0.000000
     3  H    1.089453   1.788516   0.000000
     4  H    1.092094   1.799203   1.803783   0.000000
     5  O    1.487702   2.081704   2.077464   2.130749   0.000000
     6  H    2.090814   2.923593   2.513570   2.382093   0.982700
     7  H    2.090185   2.298131   2.905229   2.597757   0.982625
                    6          7
     6  H    0.000000
     7  H    1.597216   0.000000
 Stoichiometry    CH5O(1+)
 Framework group  C1[X(CH5O)]
 Deg. of freedom    15
 Full point group                 C1      NOp   1
 RotChk:  IX=0 Diff= 1.62D-02
 Largest Abelian subgroup         C1      NOp   1
 Largest concise Abelian subgroup C1      NOp   1
                         Standard orientation:                         
 ---------------------------------------------------------------------
 Center     Atomic      Atomic             Coordinates (Angstroms)
 Number     Number       Type             X           Y           Z
 ---------------------------------------------------------------------
      1          6           0       -0.773227   -0.001289    0.017508
      2          1           0       -1.102235    1.021133   -0.163733
      3          1           0       -1.140279   -0.662140   -0.767003
      4          1           0       -1.080945   -0.344406    1.007583
      5          8           0        0.710303   -0.000293   -0.093830
      6          1           0        1.140798   -0.800847    0.279648
      7          1           0        1.139599    0.796341    0.289096
 ---------------------------------------------------------------------
 Rotational constants (GHZ):         104.8870209          21.5207087          20.6609094
 Leave Link  202 at Sun Oct 13 20:19:14 2019, MaxMem=  1342177280 cpu:               2.1 elap:               0.4
 (Enter /apps/cent7/gaussian/g16-A.03/g16-haswell/g16/l301.exe)
 Standard basis: 6-31G(d) (6D, 7F)
 Ernie: Thresh=  0.10000D-02 Tol=  0.10000D-05 Strict=F.
 There are    40 symmetry adapted cartesian basis functions of A   symmetry.
 There are    40 symmetry adapted basis functions of A   symmetry.
    40 basis functions,    76 primitive gaussians,    40 cartesian basis functions
     9 alpha electrons        9 beta electrons
       nuclear repulsion energy        45.9668061387 Hartrees.
 IExCor=  402 DFT=T Ex+Corr=B3LYP ExCW=0 ScaHFX=  0.200000
 ScaDFX=  0.800000  0.720000  1.000000  0.810000 ScalE2=  1.000000  1.000000
 IRadAn=      5 IRanWt=     -1 IRanGd=            0 ICorTp=0 IEmpDi=  4
 NAtoms=    7 NActive=    7 NUniq=    7 SFac= 1.00D+00 NAtFMM=   60 NAOKFM=F Big=F
 Integral buffers will be    131072 words long.
 Raffenetti 2 integral format.
 Two-electron integral symmetry is turned on.
 Leave Link  301 at Sun Oct 13 20:19:14 2019, MaxMem=  1342177280 cpu:               2.4 elap:               0.5
 (Enter /apps/cent7/gaussian/g16-A.03/g16-haswell/g16/l302.exe)
 NPDir=0 NMtPBC=     1 NCelOv=     1 NCel=       1 NClECP=     1 NCelD=      1
         NCelK=      1 NCelE2=     1 NClLst=     1 CellRange=     0.0.
 One-electron integrals computed using PRISM.
 One-electron integral symmetry used in STVInt
 NBasis=    40 RedAO= T EigKep=  1.00D-02  NBF=    40
 NBsUse=    40 1.00D-06 EigRej= -1.00D+00 NBFU=    40
 Precomputing XC quadrature grid using
 IXCGrd= 4 IRadAn=           5 IRanWt=          -1 IRanGd=           0 AccXCQ= 0.00D+00.
 Generated NRdTot=       0 NPtTot=           0 NUsed=           0 NTot=          32
 NSgBfM=    40    40    40    40    40 MxSgAt=     7 MxSgA2=     7.
 Leave Link  302 at Sun Oct 13 20:19:17 2019, MaxMem=  1342177280 cpu:              15.1 elap:               3.1
 (Enter /apps/cent7/gaussian/g16-A.03/g16-haswell/g16/l303.exe)
 DipDrv:  MaxL=1.
 Leave Link  303 at Sun Oct 13 20:19:18 2019, MaxMem=  1342177280 cpu:               3.6 elap:               0.8
 (Enter /apps/cent7/gaussian/g16-A.03/g16-haswell/g16/l401.exe)
 Initial guess from the checkpoint file:  "methanol_p.chk"
 B after Tr=     0.000000    0.000000   -0.000000
         Rot=    0.999983    0.004953    0.003008    0.000941 Ang=   0.67 deg.
 Guess basis will be translated and rotated to current coordinates.
 JPrj=2 DoOrth=T DoCkMO=T.
 Generating alternative initial guess.
 ExpMin= 1.61D-01 ExpMax= 5.48D+03 ExpMxC= 8.25D+02 IAcc=2 IRadAn=         4 AccDes= 0.00D+00
 Harris functional with IExCor=  402 and IRadAn=       4 diagonalized for initial guess.
 HarFok:  IExCor=  402 AccDes= 0.00D+00 IRadAn=         4 IDoV= 1 UseB2=F ITyADJ=14
 ICtDFT=  3500011 ScaDFX=  1.000000  1.000000  1.000000  1.000000
 FoFCou: FMM=F IPFlag=           0 FMFlag=      100000 FMFlg1=           0
         NFxFlg=           0 DoJE=T BraDBF=F KetDBF=T FulRan=T
         wScrn=  0.000000 ICntrl=       500 IOpCl=  0 I1Cent=   200000004 NGrid=           0
         NMat0=    1 NMatS0=      1 NMatT0=    0 NMatD0=    1 NMtDS0=    0 NMtDT0=    0
 Petite list used in FoFCou.
 Harris En= -116.100394816773    
 Leave Link  401 at Sun Oct 13 20:19:26 2019, MaxMem=  1342177280 cpu:              36.7 elap:               7.6
 (Enter /apps/cent7/gaussian/g16-A.03/g16-haswell/g16/l502.exe)
 Keep R1 ints in memory in canonical form, NReq=21049463.
 FoFCou: FMM=F IPFlag=           0 FMFlag=           0 FMFlg1=           0
         NFxFlg=           0 DoJE=F BraDBF=F KetDBF=F FulRan=T
         wScrn=  0.000000 ICntrl=       600 IOpCl=  0 I1Cent=           0 NGrid=           0
         NMat0=    1 NMatS0=    820 NMatT0=    0 NMatD0=    1 NMtDS0=    0 NMtDT0=    0
 Symmetry not used in FoFCou.
 Two-electron integral symmetry not used.
 Closed shell SCF:
 Using DIIS extrapolation, IDIIS=  1040.
 NGot=  1342177280 LenX=  1341835823 LenY=  1341833782
 Requested convergence on RMS density matrix=1.00D-08 within 128 cycles.
 Requested convergence on MAX density matrix=1.00D-06.
 Requested convergence on             energy=1.00D-06.
 No special actions if energy rises.
 Integral accuracy reduced to 1.0D-05 until final iterations.

 Cycle   1  Pass 0  IDiag  1:
 E= -116.010969204575    
 DIIS: error= 6.49D-03 at cycle   1 NSaved=   1.
 NSaved= 1 IEnMin= 1 EnMin= -116.010969204575     IErMin= 1 ErrMin= 6.49D-03
 ErrMax= 6.49D-03  0.00D+00 EMaxC= 1.00D-01 BMatC= 2.91D-03 BMatP= 2.91D-03
 IDIUse=3 WtCom= 9.35D-01 WtEn= 6.49D-02
 Coeff-Com:  0.100D+01
 Coeff-En:   0.100D+01
 Coeff:      0.100D+01
 Gap=     1.207 Goal=   None    Shift=    0.000
 GapD=    1.207 DampG=2.000 DampE=1.000 DampFc=2.0000 IDamp=-1.
 RMSDP=1.72D-03 MaxDP=1.43D-02              OVMax= 2.11D-02

 Cycle   2  Pass 0  IDiag  1:
 E= -116.013873881344     Delta-E=       -0.002904676769 Rises=F Damp=F
 DIIS: error= 4.12D-03 at cycle   2 NSaved=   2.
 NSaved= 2 IEnMin= 2 EnMin= -116.013873881344     IErMin= 2 ErrMin= 4.12D-03
 ErrMax= 4.12D-03  0.00D+00 EMaxC= 1.00D-01 BMatC= 6.88D-04 BMatP= 2.91D-03
 IDIUse=3 WtCom= 9.59D-01 WtEn= 4.12D-02
 Coeff-Com:  0.275D+00 0.725D+00
 Coeff-En:   0.000D+00 0.100D+01
 Coeff:      0.264D+00 0.736D+00
 Gap=     0.390 Goal=   None    Shift=    0.000
 RMSDP=6.97D-04 MaxDP=8.27D-03 DE=-2.90D-03 OVMax= 9.02D-03

 Cycle   3  Pass 0  IDiag  1:
 E= -116.014276268465     Delta-E=       -0.000402387121 Rises=F Damp=F
 DIIS: error= 2.15D-03 at cycle   3 NSaved=   3.
 NSaved= 3 IEnMin= 3 EnMin= -116.014276268465     IErMin= 3 ErrMin= 2.15D-03
 ErrMax= 2.15D-03  0.00D+00 EMaxC= 1.00D-01 BMatC= 2.41D-04 BMatP= 6.88D-04
 IDIUse=3 WtCom= 9.78D-01 WtEn= 2.15D-02
 Coeff-Com:  0.230D-02 0.368D+00 0.630D+00
 Coeff-En:   0.000D+00 0.224D+00 0.776D+00
 Coeff:      0.225D-02 0.365D+00 0.633D+00
 Gap=     0.388 Goal=   None    Shift=    0.000
 RMSDP=2.69D-04 MaxDP=3.37D-03 DE=-4.02D-04 OVMax= 3.74D-03

 Cycle   4  Pass 0  IDiag  1:
 E= -116.014460133883     Delta-E=       -0.000183865418 Rises=F Damp=F
 DIIS: error= 4.81D-04 at cycle   4 NSaved=   4.
 NSaved= 4 IEnMin= 4 EnMin= -116.014460133883     IErMin= 4 ErrMin= 4.81D-04
 ErrMax= 4.81D-04  0.00D+00 EMaxC= 1.00D-01 BMatC= 1.10D-05 BMatP= 2.41D-04
 IDIUse=3 WtCom= 9.95D-01 WtEn= 4.81D-03
 Coeff-Com: -0.100D-01 0.139D+00 0.302D+00 0.568D+00
 Coeff-En:   0.000D+00 0.000D+00 0.000D+00 0.100D+01
 Coeff:     -0.997D-02 0.139D+00 0.301D+00 0.570D+00
 Gap=     0.388 Goal=   None    Shift=    0.000
 RMSDP=5.93D-05 MaxDP=8.02D-04 DE=-1.84D-04 OVMax= 9.59D-04

 Cycle   5  Pass 0  IDiag  1:
 E= -116.014467849272     Delta-E=       -0.000007715390 Rises=F Damp=F
 DIIS: error= 1.36D-04 at cycle   5 NSaved=   5.
 NSaved= 5 IEnMin= 5 EnMin= -116.014467849272     IErMin= 5 ErrMin= 1.36D-04
 ErrMax= 1.36D-04  0.00D+00 EMaxC= 1.00D-01 BMatC= 8.54D-07 BMatP= 1.10D-05
 IDIUse=3 WtCom= 9.99D-01 WtEn= 1.36D-03
 Coeff-Com: -0.570D-02 0.319D-01 0.870D-01 0.270D+00 0.617D+00
 Coeff-En:   0.000D+00 0.000D+00 0.000D+00 0.000D+00 0.100D+01
 Coeff:     -0.570D-02 0.319D-01 0.869D-01 0.270D+00 0.617D+00
 Gap=     0.388 Goal=   None    Shift=    0.000
 RMSDP=1.59D-05 MaxDP=2.23D-04 DE=-7.72D-06 OVMax= 2.36D-04

 Cycle   6  Pass 0  IDiag  1:
 E= -116.014468568578     Delta-E=       -0.000000719305 Rises=F Damp=F
 DIIS: error= 9.91D-06 at cycle   6 NSaved=   6.
 NSaved= 6 IEnMin= 6 EnMin= -116.014468568578     IErMin= 6 ErrMin= 9.91D-06
 ErrMax= 9.91D-06  0.00D+00 EMaxC= 1.00D-01 BMatC= 3.87D-09 BMatP= 8.54D-07
 IDIUse=1 WtCom= 1.00D+00 WtEn= 0.00D+00
 Coeff-Com: -0.190D-03-0.154D-02-0.140D-02 0.565D-02 0.652D-01 0.932D+00
 Coeff:     -0.190D-03-0.154D-02-0.140D-02 0.565D-02 0.652D-01 0.932D+00
 Gap=     0.388 Goal=   None    Shift=    0.000
 RMSDP=1.67D-06 MaxDP=1.22D-05 DE=-7.19D-07 OVMax= 2.11D-05

 Initial convergence to 1.0D-05 achieved.  Increase integral accuracy.
 Cycle   7  Pass 1  IDiag  1:
 E= -116.014469198629     Delta-E=       -0.000000630052 Rises=F Damp=F
 DIIS: error= 1.61D-06 at cycle   1 NSaved=   1.
 NSaved= 1 IEnMin= 1 EnMin= -116.014469198629     IErMin= 1 ErrMin= 1.61D-06
 ErrMax= 1.61D-06  0.00D+00 EMaxC= 1.00D-01 BMatC= 1.40D-10 BMatP= 1.40D-10
 IDIUse=1 WtCom= 1.00D+00 WtEn= 0.00D+00
 Coeff-Com:  0.100D+01
 Coeff:      0.100D+01
 Gap=     0.388 Goal=   None    Shift=    0.000
 RMSDP=1.67D-06 MaxDP=1.22D-05 DE=-6.30D-07 OVMax= 6.88D-06

 Cycle   8  Pass 1  IDiag  1:
 E= -116.014469198738     Delta-E=       -0.000000000109 Rises=F Damp=F
 DIIS: error= 1.38D-06 at cycle   2 NSaved=   2.
 NSaved= 2 IEnMin= 2 EnMin= -116.014469198738     IErMin= 2 ErrMin= 1.38D-06
 ErrMax= 1.38D-06  0.00D+00 EMaxC= 1.00D-01 BMatC= 8.53D-11 BMatP= 1.40D-10
 IDIUse=1 WtCom= 1.00D+00 WtEn= 0.00D+00
 Coeff-Com:  0.425D+00 0.575D+00
 Coeff:      0.425D+00 0.575D+00
 Gap=     0.388 Goal=   None    Shift=    0.000
 RMSDP=1.83D-07 MaxDP=2.67D-06 DE=-1.09D-10 OVMax= 2.95D-06

 Cycle   9  Pass 1  IDiag  1:
 E= -116.014469198794     Delta-E=       -0.000000000055 Rises=F Damp=F
 DIIS: error= 5.54D-07 at cycle   3 NSaved=   3.
 NSaved= 3 IEnMin= 3 EnMin= -116.014469198794     IErMin= 3 ErrMin= 5.54D-07
 ErrMax= 5.54D-07  0.00D+00 EMaxC= 1.00D-01 BMatC= 1.49D-11 BMatP= 8.53D-11
 IDIUse=1 WtCom= 1.00D+00 WtEn= 0.00D+00
 Coeff-Com:  0.996D-01 0.306D+00 0.595D+00
 Coeff:      0.996D-01 0.306D+00 0.595D+00
 Gap=     0.388 Goal=   None    Shift=    0.000
 RMSDP=5.43D-08 MaxDP=8.27D-07 DE=-5.52D-11 OVMax= 8.34D-07

 Cycle  10  Pass 1  IDiag  1:
 E= -116.014469198804     Delta-E=       -0.000000000010 Rises=F Damp=F
 DIIS: error= 4.63D-08 at cycle   4 NSaved=   4.
 NSaved= 4 IEnMin= 4 EnMin= -116.014469198804     IErMin= 4 ErrMin= 4.63D-08
 ErrMax= 4.63D-08  0.00D+00 EMaxC= 1.00D-01 BMatC= 1.15D-13 BMatP= 1.49D-11
 IDIUse=1 WtCom= 1.00D+00 WtEn= 0.00D+00
 Coeff-Com: -0.865D-02 0.137D-01 0.928D-01 0.902D+00
 Coeff:     -0.865D-02 0.137D-01 0.928D-01 0.902D+00
 Gap=     0.388 Goal=   None    Shift=    0.000
 RMSDP=1.01D-08 MaxDP=7.17D-08 DE=-1.02D-11 OVMax= 1.86D-07

 Cycle  11  Pass 1  IDiag  1:
 E= -116.014469198804     Delta-E=        0.000000000000 Rises=F Damp=F
 DIIS: error= 2.10D-08 at cycle   5 NSaved=   5.
 NSaved= 5 IEnMin= 4 EnMin= -116.014469198804     IErMin= 5 ErrMin= 2.10D-08
 ErrMax= 2.10D-08  0.00D+00 EMaxC= 1.00D-01 BMatC= 1.31D-14 BMatP= 1.15D-13
 IDIUse=1 WtCom= 1.00D+00 WtEn= 0.00D+00
 Coeff-Com: -0.594D-02-0.304D-02 0.191D-01 0.355D+00 0.635D+00
 Coeff:     -0.594D-02-0.304D-02 0.191D-01 0.355D+00 0.635D+00
 Gap=     0.388 Goal=   None    Shift=    0.000
 RMSDP=2.59D-09 MaxDP=3.92D-08 DE= 0.00D+00 OVMax= 3.85D-08

 SCF Done:  E(RB3LYP) =  -116.014469199     A.U. after   11 cycles
            NFock= 11  Conv=0.26D-08     -V/T= 2.0093
 KE= 1.149425445791D+02 PE=-3.575873733910D+02 EE= 8.066355347435D+01
 Leave Link  502 at Sun Oct 13 20:19:46 2019, MaxMem=  1342177280 cpu:              96.0 elap:              20.0
 (Enter /apps/cent7/gaussian/g16-A.03/g16-haswell/g16/l701.exe)
 ... and contract with generalized density number  0.
 Compute integral first derivatives.
 Leave Link  701 at Sun Oct 13 20:19:48 2019, MaxMem=  1342177280 cpu:              12.3 elap:               2.6
 (Enter /apps/cent7/gaussian/g16-A.03/g16-haswell/g16/l702.exe)
 L702 exits ... SP integral derivatives will be done elsewhere.
 Leave Link  702 at Sun Oct 13 20:19:49 2019, MaxMem=  1342177280 cpu:               2.0 elap:               0.4
 (Enter /apps/cent7/gaussian/g16-A.03/g16-haswell/g16/l703.exe)
 Integral derivatives from FoFJK, PRISM(SPDF).
 Compute integral first derivatives, UseDBF=F ICtDFT=           0.
 Calling FoFJK, ICntrl=      2127 FMM=F ISym2X=0 I1Cent= 0 IOpClX= 0 NMat=1 NMatS=1 NMatT=0.
 FoFJK:  IHMeth= 1 ICntrl=    2127 DoSepK=F KAlg= 0 I1Cent=           0 FoldK=F
 IRaf=         0 NMat=       1 IRICut=       1 DoRegI=T DoRafI=F ISym2E= 0 IDoP0=0 IntGTp=1.
 FoFCou: FMM=F IPFlag=           0 FMFlag=      100000 FMFlg1=         800
         NFxFlg=           0 DoJE=F BraDBF=F KetDBF=F FulRan=T
         wScrn=  0.000000 ICntrl=      2127 IOpCl=  0 I1Cent=           0 NGrid=           0
         NMat0=    1 NMatS0=      1 NMatT0=    0 NMatD0=    1 NMtDS0=    0 NMtDT0=    0
 Symmetry not used in FoFCou.
 Leave Link  703 at Sun Oct 13 20:19:52 2019, MaxMem=  1342177280 cpu:              15.1 elap:               3.2
 (Enter /apps/cent7/gaussian/g16-A.03/g16-haswell/g16/l716.exe)
 Dipole        = 6.19455339D-01 6.51422926D-03 5.60100480D-01
 ***** Axes restored to original set *****
 -------------------------------------------------------------------
 Center     Atomic                   Forces (Hartrees/Bohr)
 Number     Number              X              Y              Z
 -------------------------------------------------------------------
      1        6          -0.006934086   -0.009120483    0.017987643
      2        1           0.001985923    0.001311986   -0.002791566
      3        1           0.001294963    0.002080686   -0.002733946
      4        1           0.001078020    0.001442967   -0.003894444
      5        8           0.001244097    0.002848779   -0.008897302
      6        1           0.000847341    0.002037649    0.000935320
      7        1           0.000483742   -0.000601585   -0.000605706
 -------------------------------------------------------------------
 Cartesian Forces:  Max     0.017987643 RMS     0.005326048
 Leave Link  716 at Sun Oct 13 20:19:52 2019, MaxMem=  1342177280 cpu:               2.0 elap:               0.4
 (Enter /apps/cent7/gaussian/g16-A.03/g16-haswell/g16/l103.exe)

 GradGradGradGradGradGradGradGradGradGradGradGradGradGradGradGradGradGrad
 Berny optimization.
 Using GEDIIS/GDIIS optimizer.
 FormGI is forming the generalized inverse of G from B-inverse, IUseBI=4.
 Internal  Forces:  Max     0.009881494 RMS     0.003098702
 Search for a local minimum.
 Step number   2 out of a maximum of   31
 All quantities printed in internal units (Hartrees-Bohrs-Radians)
 RMS Force = .30987D-02 SwitMx=.10000D-02 MixMth= 1
 Mixed Optimization -- RFO/linear search
 Update second derivatives using D2CorX and points    1    2
 DE= -7.27D-03 DEPred=-7.01D-03 R= 1.04D+00
 TightC=F SS=  1.41D+00  RLast= 2.45D-01 DXNew= 5.0454D-01 7.3581D-01
 Trust test= 1.04D+00 RLast= 2.45D-01 DXMaxT set to 5.05D-01
 ITU=  1  0
 Use linear search instead of GDIIS.
     Eigenvalues ---    0.01290   0.03816   0.07892   0.08364   0.13900
     Eigenvalues ---    0.16000   0.16000   0.16000   0.17189   0.36788
     Eigenvalues ---    0.37230   0.37281   0.38830   0.55471   0.56396
 RFO step:  Lambda=-1.07309371D-03 EMin= 1.28961589D-02
 Quartic linear search produced a step of  0.22096.
 Iteration  1 RMS(Cart)=  0.02691438 RMS(Int)=  0.00126276
 Iteration  2 RMS(Cart)=  0.00090251 RMS(Int)=  0.00086920
 Iteration  3 RMS(Cart)=  0.00000067 RMS(Int)=  0.00086920
 ITry= 1 IFail=0 DXMaxC= 5.75D-02 DCOld= 1.00D+10 DXMaxT= 5.05D-01 DXLimC= 3.00D+00 Rises=F
 Variable       Old X    -DE/DX   Delta X   Delta X   Delta X     New X
                                 (Linear)    (Quad)   (Total)
    R1        2.05836  -0.00040   0.00803  -0.00666   0.00137   2.05973
    R2        2.05877  -0.00060   0.00812  -0.00735   0.00077   2.05954
    R3        2.06376  -0.00116   0.00923  -0.00994  -0.00071   2.06305
    R4        2.81135   0.00988   0.02409   0.01323   0.03733   2.84868
    R5        1.85703   0.00110   0.00948  -0.00406   0.00542   1.86245
    R6        1.85689   0.00085   0.00945  -0.00458   0.00487   1.86176
    A1        1.92601   0.00336   0.00340   0.02266   0.02469   1.95071
    A2        1.93976   0.00401   0.00644   0.02643   0.03213   1.97189
    A3        1.86306  -0.00393  -0.01051  -0.02421  -0.03559   1.82748
    A4        1.94692   0.00421   0.00802   0.02846   0.03582   1.98274
    A5        1.85718  -0.00387  -0.01181  -0.02225  -0.03490   1.82228
    A6        1.92734  -0.00453   0.00369  -0.03594  -0.03285   1.89449
    A7        1.99090   0.00032   0.01774   0.00013   0.01639   2.00729
    A8        1.99001   0.00036   0.01754   0.00053   0.01660   2.00661
    A9        1.89754   0.00048  -0.00289   0.02019   0.01507   1.91260
    D1        2.87190   0.00103   0.02000   0.05623   0.07644   2.94833
    D2        0.67756  -0.00022  -0.00209   0.02741   0.02452   0.70209
    D3       -1.35435   0.00106   0.01172   0.05944   0.07199  -1.28236
    D4        2.73451  -0.00020  -0.01036   0.03062   0.02008   2.75458
    D5        0.76130   0.00118   0.01642   0.05972   0.07661   0.83791
    D6       -1.43303  -0.00007  -0.00567   0.03089   0.02469  -1.40834
         Item               Value     Threshold  Converged?
 Maximum Force            0.009881     0.000450     NO 
 RMS     Force            0.003099     0.000300     NO 
 Maximum Displacement     0.057476     0.001800     NO 
 RMS     Displacement     0.026962     0.001200     NO 
 Predicted change in Energy=-6.276661D-04
 Lowest energy point so far.  Saving SCF results.
 GradGradGradGradGradGradGradGradGradGradGradGradGradGradGradGradGradGrad

 Leave Link  103 at Sun Oct 13 20:20:04 2019, MaxMem=  1342177280 cpu:              53.9 elap:              11.2
 (Enter /apps/cent7/gaussian/g16-A.03/g16-haswell/g16/l202.exe)
                          Input orientation:                          
 ---------------------------------------------------------------------
 Center     Atomic      Atomic             Coordinates (Angstroms)
 Number     Number       Type             X           Y           Z
 ---------------------------------------------------------------------
      1          6           0       -0.174752    0.033070    0.835041
      2          1           0        0.265068   -0.963040    0.786618
      3          1           0        0.241741    0.619403    1.653909
      4          1           0       -1.266251    0.018307    0.819003
      5          8           0        0.313716    0.728043   -0.410284
      6          1           0       -0.129023    1.585691   -0.609690
      7          1           0        0.328528    0.167813   -1.220560
 ---------------------------------------------------------------------
                    Distance matrix (angstroms):
                    1          2          3          4          5
     1  C    0.000000
     2  H    1.089964   0.000000
     3  H    1.089861   1.804678   0.000000
     4  H    1.091716   1.819074   1.825492   0.000000
     5  O    1.507455   2.072367   2.068302   2.123950   0.000000
     6  H    2.121313   2.932749   2.488987   2.406480   0.985566
     7  H    2.120599   2.304696   2.911020   2.593355   0.985203
                    6          7
     6  H    0.000000
     7  H    1.610247   0.000000
 Stoichiometry    CH5O(1+)
 Framework group  C1[X(CH5O)]
 Deg. of freedom    15
 Full point group                 C1      NOp   1
 RotChk:  IX=0 Diff= 4.90D-02
 Largest Abelian subgroup         C1      NOp   1
 Largest concise Abelian subgroup C1      NOp   1
                         Standard orientation:                         
 ---------------------------------------------------------------------
 Center     Atomic      Atomic             Coordinates (Angstroms)
 Number     Number       Type             X           Y           Z
 ---------------------------------------------------------------------
      1          6           0       -0.790797   -0.001614    0.018232
      2          1           0       -1.086180    1.019913   -0.221045
      3          1           0       -1.116348   -0.706200   -0.746864
      4          1           0       -1.066635   -0.298735    1.031877
      5          8           0        0.712869   -0.000172   -0.088564
      6          1           0        1.156328   -0.807072    0.262999
      7          1           0        1.154665    0.803148    0.272157
 ---------------------------------------------------------------------
 Rotational constants (GHZ):         103.5848123          21.2023287          20.3354354
 Leave Link  202 at Sun Oct 13 20:20:04 2019, MaxMem=  1342177280 cpu:               2.8 elap:               0.6
 (Enter /apps/cent7/gaussian/g16-A.03/g16-haswell/g16/l301.exe)
 Standard basis: 6-31G(d) (6D, 7F)
 Ernie: Thresh=  0.10000D-02 Tol=  0.10000D-05 Strict=F.
 There are    40 symmetry adapted cartesian basis functions of A   symmetry.
 There are    40 symmetry adapted basis functions of A   symmetry.
    40 basis functions,    76 primitive gaussians,    40 cartesian basis functions
     9 alpha electrons        9 beta electrons
       nuclear repulsion energy        45.6847409837 Hartrees.
 IExCor=  402 DFT=T Ex+Corr=B3LYP ExCW=0 ScaHFX=  0.200000
 ScaDFX=  0.800000  0.720000  1.000000  0.810000 ScalE2=  1.000000  1.000000
 IRadAn=      5 IRanWt=     -1 IRanGd=            0 ICorTp=0 IEmpDi=  4
 NAtoms=    7 NActive=    7 NUniq=    7 SFac= 1.00D+00 NAtFMM=   60 NAOKFM=F Big=F
 Integral buffers will be    131072 words long.
 Raffenetti 2 integral format.
 Two-electron integral symmetry is turned on.
 Leave Link  301 at Sun Oct 13 20:20:05 2019, MaxMem=  1342177280 cpu:               2.3 elap:               0.5
 (Enter /apps/cent7/gaussian/g16-A.03/g16-haswell/g16/l302.exe)
 NPDir=0 NMtPBC=     1 NCelOv=     1 NCel=       1 NClECP=     1 NCelD=      1
         NCelK=      1 NCelE2=     1 NClLst=     1 CellRange=     0.0.
 One-electron integrals computed using PRISM.
 One-electron integral symmetry used in STVInt
 NBasis=    40 RedAO= T EigKep=  1.01D-02  NBF=    40
 NBsUse=    40 1.00D-06 EigRej= -1.00D+00 NBFU=    40
 Precomputing XC quadrature grid using
 IXCGrd= 4 IRadAn=           5 IRanWt=          -1 IRanGd=           0 AccXCQ= 0.00D+00.
 Generated NRdTot=       0 NPtTot=           0 NUsed=           0 NTot=          32
 NSgBfM=    40    40    40    40    40 MxSgAt=     7 MxSgA2=     7.
 Leave Link  302 at Sun Oct 13 20:20:08 2019, MaxMem=  1342177280 cpu:              15.6 elap:               3.3
 (Enter /apps/cent7/gaussian/g16-A.03/g16-haswell/g16/l303.exe)
 DipDrv:  MaxL=1.
 Leave Link  303 at Sun Oct 13 20:20:09 2019, MaxMem=  1342177280 cpu:               3.4 elap:               0.7
 (Enter /apps/cent7/gaussian/g16-A.03/g16-haswell/g16/l401.exe)
 Initial guess from the checkpoint file:  "methanol_p.chk"
 B after Tr=     0.000000   -0.000000    0.000000
         Rot=    0.999858    0.016828    0.000122   -0.000289 Ang=   1.93 deg.
 Guess basis will be translated and rotated to current coordinates.
 JPrj=2 DoOrth=T DoCkMO=T.
 Generating alternative initial guess.
 ExpMin= 1.61D-01 ExpMax= 5.48D+03 ExpMxC= 8.25D+02 IAcc=2 IRadAn=         4 AccDes= 0.00D+00
 Harris functional with IExCor=  402 and IRadAn=       4 diagonalized for initial guess.
 HarFok:  IExCor=  402 AccDes= 0.00D+00 IRadAn=         4 IDoV= 1 UseB2=F ITyADJ=14
 ICtDFT=  3500011 ScaDFX=  1.000000  1.000000  1.000000  1.000000
 FoFCou: FMM=F IPFlag=           0 FMFlag=      100000 FMFlg1=           0
         NFxFlg=           0 DoJE=T BraDBF=F KetDBF=T FulRan=T
         wScrn=  0.000000 ICntrl=       500 IOpCl=  0 I1Cent=   200000004 NGrid=           0
         NMat0=    1 NMatS0=      1 NMatT0=    0 NMatD0=    1 NMtDS0=    0 NMtDT0=    0
 Petite list used in FoFCou.
 Harris En= -116.099106816497    
 Leave Link  401 at Sun Oct 13 20:20:15 2019, MaxMem=  1342177280 cpu:              31.4 elap:               6.5
 (Enter /apps/cent7/gaussian/g16-A.03/g16-haswell/g16/l502.exe)
 Keep R1 ints in memory in canonical form, NReq=21049463.
 FoFCou: FMM=F IPFlag=           0 FMFlag=           0 FMFlg1=           0
         NFxFlg=           0 DoJE=F BraDBF=F KetDBF=F FulRan=T
         wScrn=  0.000000 ICntrl=       600 IOpCl=  0 I1Cent=           0 NGrid=           0
         NMat0=    1 NMatS0=    820 NMatT0=    0 NMatD0=    1 NMtDS0=    0 NMtDT0=    0
 Symmetry not used in FoFCou.
 Two-electron integral symmetry not used.
 Closed shell SCF:
 Using DIIS extrapolation, IDIIS=  1040.
 NGot=  1342177280 LenX=  1341835823 LenY=  1341833782
 Requested convergence on RMS density matrix=1.00D-08 within 128 cycles.
 Requested convergence on MAX density matrix=1.00D-06.
 Requested convergence on             energy=1.00D-06.
 No special actions if energy rises.
 Integral accuracy reduced to 1.0D-05 until final iterations.

 Cycle   1  Pass 0  IDiag  1:
 E= -116.014579313222    
 DIIS: error= 2.17D-03 at cycle   1 NSaved=   1.
 NSaved= 1 IEnMin= 1 EnMin= -116.014579313222     IErMin= 1 ErrMin= 2.17D-03
 ErrMax= 2.17D-03  0.00D+00 EMaxC= 1.00D-01 BMatC= 4.61D-04 BMatP= 4.61D-04
 IDIUse=3 WtCom= 9.78D-01 WtEn= 2.17D-02
 Coeff-Com:  0.100D+01
 Coeff-En:   0.100D+01
 Coeff:      0.100D+01
 Gap=     1.225 Goal=   None    Shift=    0.000
 GapD=    1.225 DampG=2.000 DampE=1.000 DampFc=2.0000 IDamp=-1.
 RMSDP=7.35D-04 MaxDP=8.09D-03              OVMax= 8.92D-03

 Cycle   2  Pass 0  IDiag  1:
 E= -116.015255538989     Delta-E=       -0.000676225767 Rises=F Damp=F
 DIIS: error= 5.02D-04 at cycle   2 NSaved=   2.
 NSaved= 2 IEnMin= 2 EnMin= -116.015255538989     IErMin= 2 ErrMin= 5.02D-04
 ErrMax= 5.02D-04  0.00D+00 EMaxC= 1.00D-01 BMatC= 2.04D-05 BMatP= 4.61D-04
 IDIUse=3 WtCom= 9.95D-01 WtEn= 5.02D-03
 Coeff-Com:  0.782D-01 0.922D+00
 Coeff-En:   0.000D+00 0.100D+01
 Coeff:      0.778D-01 0.922D+00
 Gap=     0.388 Goal=   None    Shift=    0.000
 RMSDP=1.42D-04 MaxDP=1.33D-03 DE=-6.76D-04 OVMax= 1.85D-03

 Cycle   3  Pass 0  IDiag  1:
 E= -116.015271005597     Delta-E=       -0.000015466607 Rises=F Damp=F
 DIIS: error= 4.05D-04 at cycle   3 NSaved=   3.
 NSaved= 3 IEnMin= 3 EnMin= -116.015271005597     IErMin= 3 ErrMin= 4.05D-04
 ErrMax= 4.05D-04  0.00D+00 EMaxC= 1.00D-01 BMatC= 7.51D-06 BMatP= 2.04D-05
 IDIUse=3 WtCom= 9.96D-01 WtEn= 4.05D-03
 Coeff-Com: -0.129D-01 0.353D+00 0.659D+00
 Coeff-En:   0.000D+00 0.000D+00 0.100D+01
 Coeff:     -0.129D-01 0.352D+00 0.661D+00
 Gap=     0.388 Goal=   None    Shift=    0.000
 RMSDP=5.69D-05 MaxDP=7.21D-04 DE=-1.55D-05 OVMax= 7.82D-04

 Cycle   4  Pass 0  IDiag  1:
 E= -116.015275923042     Delta-E=       -0.000004917445 Rises=F Damp=F
 DIIS: error= 1.77D-04 at cycle   4 NSaved=   4.
 NSaved= 4 IEnMin= 4 EnMin= -116.015275923042     IErMin= 4 ErrMin= 1.77D-04
 ErrMax= 1.77D-04  0.00D+00 EMaxC= 1.00D-01 BMatC= 1.29D-06 BMatP= 7.51D-06
 IDIUse=3 WtCom= 9.98D-01 WtEn= 1.77D-03
 Coeff-Com: -0.114D-01 0.968D-01 0.348D+00 0.567D+00
 Coeff-En:   0.000D+00 0.000D+00 0.657D-01 0.934D+00
 Coeff:     -0.114D-01 0.966D-01 0.347D+00 0.568D+00
 Gap=     0.388 Goal=   None    Shift=    0.000
 RMSDP=1.87D-05 MaxDP=2.47D-04 DE=-4.92D-06 OVMax= 2.95D-04

 Cycle   5  Pass 0  IDiag  1:
 E= -116.015276881002     Delta-E=       -0.000000957960 Rises=F Damp=F
 DIIS: error= 3.25D-05 at cycle   5 NSaved=   5.
 NSaved= 5 IEnMin= 5 EnMin= -116.015276881002     IErMin= 5 ErrMin= 3.25D-05
 ErrMax= 3.25D-05  0.00D+00 EMaxC= 1.00D-01 BMatC= 4.32D-08 BMatP= 1.29D-06
 IDIUse=1 WtCom= 1.00D+00 WtEn= 0.00D+00
 Coeff-Com: -0.525D-02 0.361D-01 0.146D+00 0.269D+00 0.554D+00
 Coeff:     -0.525D-02 0.361D-01 0.146D+00 0.269D+00 0.554D+00
 Gap=     0.388 Goal=   None    Shift=    0.000
 RMSDP=3.99D-06 MaxDP=5.52D-05 DE=-9.58D-07 OVMax= 5.47D-05

 Initial convergence to 1.0D-05 achieved.  Increase integral accuracy.
 Cycle   6  Pass 1  IDiag  1:
 E= -116.015277412041     Delta-E=       -0.000000531039 Rises=F Damp=F
 DIIS: error= 6.10D-06 at cycle   1 NSaved=   1.
 NSaved= 1 IEnMin= 1 EnMin= -116.015277412041     IErMin= 1 ErrMin= 6.10D-06
 ErrMax= 6.10D-06  0.00D+00 EMaxC= 1.00D-01 BMatC= 1.73D-09 BMatP= 1.73D-09
 IDIUse=1 WtCom= 1.00D+00 WtEn= 0.00D+00
 Coeff-Com:  0.100D+01
 Coeff:      0.100D+01
 Gap=     0.388 Goal=   None    Shift=    0.000
 RMSDP=3.99D-06 MaxDP=5.52D-05 DE=-5.31D-07 OVMax= 2.00D-05

 Cycle   7  Pass 1  IDiag  1:
 E= -116.015277411602     Delta-E=        0.000000000439 Rises=F Damp=F
 DIIS: error= 6.92D-06 at cycle   2 NSaved=   2.
 NSaved= 2 IEnMin= 1 EnMin= -116.015277412041     IErMin= 1 ErrMin= 6.10D-06
 ErrMax= 6.92D-06  0.00D+00 EMaxC= 1.00D-01 BMatC= 2.44D-09 BMatP= 1.73D-09
 IDIUse=1 WtCom= 1.00D+00 WtEn= 0.00D+00
 Coeff-Com:  0.544D+00 0.456D+00
 Coeff:      0.544D+00 0.456D+00
 Gap=     0.388 Goal=   None    Shift=    0.000
 RMSDP=8.00D-07 MaxDP=1.00D-05 DE= 4.39D-10 OVMax= 1.15D-05

 Cycle   8  Pass 1  IDiag  1:
 E= -116.015277413618     Delta-E=       -0.000000002016 Rises=F Damp=F
 DIIS: error= 9.14D-07 at cycle   3 NSaved=   3.
 NSaved= 3 IEnMin= 3 EnMin= -116.015277413618     IErMin= 3 ErrMin= 9.14D-07
 ErrMax= 9.14D-07  0.00D+00 EMaxC= 1.00D-01 BMatC= 3.70D-11 BMatP= 1.73D-09
 IDIUse=1 WtCom= 1.00D+00 WtEn= 0.00D+00
 Coeff-Com:  0.210D+00 0.201D+00 0.589D+00
 Coeff:      0.210D+00 0.201D+00 0.589D+00
 Gap=     0.388 Goal=   None    Shift=    0.000
 RMSDP=1.15D-07 MaxDP=1.58D-06 DE=-2.02D-09 OVMax= 1.67D-06

 Cycle   9  Pass 1  IDiag  1:
 E= -116.015277413643     Delta-E=       -0.000000000025 Rises=F Damp=F
 DIIS: error= 2.74D-07 at cycle   4 NSaved=   4.
 NSaved= 4 IEnMin= 4 EnMin= -116.015277413643     IErMin= 4 ErrMin= 2.74D-07
 ErrMax= 2.74D-07  0.00D+00 EMaxC= 1.00D-01 BMatC= 3.54D-12 BMatP= 3.70D-11
 IDIUse=1 WtCom= 1.00D+00 WtEn= 0.00D+00
 Coeff-Com:  0.131D-01 0.218D-01 0.252D+00 0.713D+00
 Coeff:      0.131D-01 0.218D-01 0.252D+00 0.713D+00
 Gap=     0.388 Goal=   None    Shift=    0.000
 RMSDP=3.70D-08 MaxDP=4.10D-07 DE=-2.48D-11 OVMax= 5.03D-07

 Cycle  10  Pass 1  IDiag  1:
 E= -116.015277413645     Delta-E=       -0.000000000003 Rises=F Damp=F
 DIIS: error= 4.21D-08 at cycle   5 NSaved=   5.
 NSaved= 5 IEnMin= 5 EnMin= -116.015277413645     IErMin= 5 ErrMin= 4.21D-08
 ErrMax= 4.21D-08  0.00D+00 EMaxC= 1.00D-01 BMatC= 7.21D-14 BMatP= 3.54D-12
 IDIUse=1 WtCom= 1.00D+00 WtEn= 0.00D+00
 Coeff-Com: -0.114D-01-0.906D-02 0.261D-01 0.180D+00 0.815D+00
 Coeff:     -0.114D-01-0.906D-02 0.261D-01 0.180D+00 0.815D+00
 Gap=     0.388 Goal=   None    Shift=    0.000
 RMSDP=6.67D-09 MaxDP=6.57D-08 DE=-2.50D-12 OVMax= 9.84D-08

 SCF Done:  E(RB3LYP) =  -116.015277414     A.U. after   10 cycles
            NFock= 10  Conv=0.67D-08     -V/T= 2.0096
 KE= 1.149161124516D+02 PE=-3.570608829190D+02 EE= 8.044475207010D+01
 Leave Link  502 at Sun Oct 13 20:20:28 2019, MaxMem=  1342177280 cpu:              62.1 elap:              13.0
 (Enter /apps/cent7/gaussian/g16-A.03/g16-haswell/g16/l701.exe)
 ... and contract with generalized density number  0.
 Compute integral first derivatives.
 Leave Link  701 at Sun Oct 13 20:20:31 2019, MaxMem=  1342177280 cpu:              11.8 elap:               2.5
 (Enter /apps/cent7/gaussian/g16-A.03/g16-haswell/g16/l702.exe)
 L702 exits ... SP integral derivatives will be done elsewhere.
 Leave Link  702 at Sun Oct 13 20:20:31 2019, MaxMem=  1342177280 cpu:               1.5 elap:               0.3
 (Enter /apps/cent7/gaussian/g16-A.03/g16-haswell/g16/l703.exe)
 Integral derivatives from FoFJK, PRISM(SPDF).
 Compute integral first derivatives, UseDBF=F ICtDFT=           0.
 Calling FoFJK, ICntrl=      2127 FMM=F ISym2X=0 I1Cent= 0 IOpClX= 0 NMat=1 NMatS=1 NMatT=0.
 FoFJK:  IHMeth= 1 ICntrl=    2127 DoSepK=F KAlg= 0 I1Cent=           0 FoldK=F
 IRaf=         0 NMat=       1 IRICut=       1 DoRegI=T DoRafI=F ISym2E= 0 IDoP0=0 IntGTp=1.
 FoFCou: FMM=F IPFlag=           0 FMFlag=      100000 FMFlg1=         800
         NFxFlg=           0 DoJE=F BraDBF=F KetDBF=F FulRan=T
         wScrn=  0.000000 ICntrl=      2127 IOpCl=  0 I1Cent=           0 NGrid=           0
         NMat0=    1 NMatS0=      1 NMatT0=    0 NMatD0=    1 NMtDS0=    0 NMtDT0=    0
 Symmetry not used in FoFCou.
 Leave Link  703 at Sun Oct 13 20:20:34 2019, MaxMem=  1342177280 cpu:              14.1 elap:               2.9
 (Enter /apps/cent7/gaussian/g16-A.03/g16-haswell/g16/l716.exe)
 Dipole        = 6.14757024D-01 5.12156506D-03 5.29219461D-01
 ***** Axes restored to original set *****
 -------------------------------------------------------------------
 Center     Atomic                   Forces (Hartrees/Bohr)
 Number     Number              X              Y              Z
 -------------------------------------------------------------------
      1        6          -0.001956602   -0.002485411    0.004823272
      2        1          -0.000415365    0.001260581    0.000602151
      3        1          -0.001163421   -0.000798736   -0.000671467
      4        1           0.001698549   -0.000363700    0.000011760
      5        8           0.001305938    0.002857338   -0.007937038
      6        1           0.001333912   -0.001744705    0.001209689
      7        1          -0.000803011    0.001274632    0.001961633
 -------------------------------------------------------------------
 Cartesian Forces:  Max     0.007937038 RMS     0.002450696
 Leave Link  716 at Sun Oct 13 20:20:34 2019, MaxMem=  1342177280 cpu:               2.2 elap:               0.5
 (Enter /apps/cent7/gaussian/g16-A.03/g16-haswell/g16/l103.exe)

 GradGradGradGradGradGradGradGradGradGradGradGradGradGradGradGradGradGrad
 Berny optimization.
 Using GEDIIS/GDIIS optimizer.
 FormGI is forming the generalized inverse of G from B-inverse, IUseBI=4.
 Internal  Forces:  Max     0.005632755 RMS     0.001578357
 Search for a local minimum.
 Step number   3 out of a maximum of   31
 All quantities printed in internal units (Hartrees-Bohrs-Radians)
 RMS Force = .15784D-02 SwitMx=.10000D-02 MixMth= 1
 Mixed Optimization -- RFO/linear search
 Update second derivatives using D2CorX and points    1    2    3
 DE= -8.08D-04 DEPred=-6.28D-04 R= 1.29D+00
 TightC=F SS=  1.41D+00  RLast= 1.65D-01 DXNew= 8.4853D-01 4.9492D-01
 Trust test= 1.29D+00 RLast= 1.65D-01 DXMaxT set to 5.05D-01
 ITU=  1  1  0
 Use linear search instead of GDIIS.
     Eigenvalues ---    0.01038   0.03462   0.08249   0.08679   0.14960
     Eigenvalues ---    0.15995   0.16000   0.16022   0.17260   0.32128
     Eigenvalues ---    0.37230   0.37244   0.39421   0.55475   0.59776
 RFO step:  Lambda=-2.36033064D-04 EMin= 1.03830155D-02
 Quartic linear search produced a step of  0.16286.
 Iteration  1 RMS(Cart)=  0.01893388 RMS(Int)=  0.00026968
 Iteration  2 RMS(Cart)=  0.00025793 RMS(Int)=  0.00008076
 Iteration  3 RMS(Cart)=  0.00000006 RMS(Int)=  0.00008076
 ITry= 1 IFail=0 DXMaxC= 4.55D-02 DCOld= 1.00D+10 DXMaxT= 5.05D-01 DXLimC= 3.00D+00 Rises=F
 Variable       Old X    -DE/DX   Delta X   Delta X   Delta X     New X
                                 (Linear)    (Quad)   (Total)
    R1        2.05973  -0.00135   0.00022  -0.00317  -0.00294   2.05679
    R2        2.05954  -0.00138   0.00013  -0.00325  -0.00313   2.05641
    R3        2.06305  -0.00169  -0.00012  -0.00409  -0.00420   2.05884
    R4        2.84868   0.00563   0.00608   0.01866   0.02474   2.87341
    R5        1.86245  -0.00236   0.00088  -0.00376  -0.00288   1.85957
    R6        1.86176  -0.00235   0.00079  -0.00374  -0.00294   1.85882
    A1        1.95071  -0.00039   0.00402  -0.00200   0.00186   1.95257
    A2        1.97189  -0.00031   0.00523  -0.00159   0.00350   1.97539
    A3        1.82748   0.00054  -0.00580   0.00251  -0.00341   1.82407
    A4        1.98274  -0.00044   0.00583  -0.00241   0.00330   1.98604
    A5        1.82228   0.00078  -0.00568   0.00398  -0.00182   1.82046
    A6        1.89449   0.00003  -0.00535   0.00056  -0.00490   1.88958
    A7        2.00729  -0.00049   0.00267  -0.00217   0.00042   2.00772
    A8        2.00661  -0.00034   0.00270  -0.00113   0.00149   2.00810
    A9        1.91260   0.00043   0.00245   0.00118   0.00351   1.91611
    D1        2.94833   0.00026   0.01245   0.03544   0.04791   2.99624
    D2        0.70209   0.00043   0.00399   0.03691   0.04087   0.74295
    D3       -1.28236   0.00038   0.01172   0.03599   0.04776  -1.23460
    D4        2.75458   0.00056   0.00327   0.03746   0.04072   2.79530
    D5        0.83791   0.00031   0.01248   0.03565   0.04814   0.88605
    D6       -1.40834   0.00048   0.00402   0.03712   0.04110  -1.36724
         Item               Value     Threshold  Converged?
 Maximum Force            0.005633     0.000450     NO 
 RMS     Force            0.001578     0.000300     NO 
 Maximum Displacement     0.045493     0.001800     NO 
 RMS     Displacement     0.018940     0.001200     NO 
 Predicted change in Energy=-1.349569D-04
 Lowest energy point so far.  Saving SCF results.
 GradGradGradGradGradGradGradGradGradGradGradGradGradGradGradGradGradGrad

 Leave Link  103 at Sun Oct 13 20:20:45 2019, MaxMem=  1342177280 cpu:              53.0 elap:              11.0
 (Enter /apps/cent7/gaussian/g16-A.03/g16-haswell/g16/l202.exe)
                          Input orientation:                          
 ---------------------------------------------------------------------
 Center     Atomic      Atomic             Coordinates (Angstroms)
 Number     Number       Type             X           Y           Z
 ---------------------------------------------------------------------
      1          6           0       -0.176492    0.028613    0.840574
      2          1           0        0.274817   -0.960940    0.798912
      3          1           0        0.230385    0.625852    1.654176
      4          1           0       -1.265418    0.004785    0.814777
      5          8           0        0.314916    0.724819   -0.418739
      6          1           0       -0.104949    1.595272   -0.604130
      7          1           0        0.305769    0.170886   -1.231532
 ---------------------------------------------------------------------
                    Distance matrix (angstroms):
                    1          2          3          4          5
     1  C    0.000000
     2  H    1.088407   0.000000
     3  H    1.088206   1.803153   0.000000
     4  H    1.089492   1.818021   1.824210   0.000000
     5  O    1.520545   2.079920   2.076997   2.130134   0.000000
     6  H    2.132301   2.940572   2.480357   2.426857   0.984044
     7  H    2.132239   2.324799   2.922326   2.585266   0.983645
                    6          7
     6  H    0.000000
     7  H    1.609719   0.000000
 Stoichiometry    CH5O(1+)
 Framework group  C1[X(CH5O)]
 Deg. of freedom    15
 Full point group                 C1      NOp   1
 RotChk:  IX=0 Diff= 4.59D-02
 Largest Abelian subgroup         C1      NOp   1
 Largest concise Abelian subgroup C1      NOp   1
                         Standard orientation:                         
 ---------------------------------------------------------------------
 Center     Atomic      Atomic             Coordinates (Angstroms)
 Number     Number       Type             X           Y           Z
 ---------------------------------------------------------------------
      1          6           0       -0.798319   -0.001503    0.018243
      2          1           0       -1.092585    1.006623   -0.267624
      3          1           0       -1.118335   -0.740238   -0.713913
      4          1           0       -1.068778   -0.252814    1.043274
      5          8           0        0.718528   -0.000141   -0.087728
      6          1           0        1.161086   -0.806564    0.261798
      7          1           0        1.160303    0.803140    0.268829
 ---------------------------------------------------------------------
 Rotational constants (GHZ):         103.7964439          20.9265661          20.0799033
 Leave Link  202 at Sun Oct 13 20:20:46 2019, MaxMem=  1342177280 cpu:               2.2 elap:               0.5
 (Enter /apps/cent7/gaussian/g16-A.03/g16-haswell/g16/l301.exe)
 Standard basis: 6-31G(d) (6D, 7F)
 Ernie: Thresh=  0.10000D-02 Tol=  0.10000D-05 Strict=F.
 There are    40 symmetry adapted cartesian basis functions of A   symmetry.
 There are    40 symmetry adapted basis functions of A   symmetry.
    40 basis functions,    76 primitive gaussians,    40 cartesian basis functions
     9 alpha electrons        9 beta electrons
       nuclear repulsion energy        45.5270993131 Hartrees.
 IExCor=  402 DFT=T Ex+Corr=B3LYP ExCW=0 ScaHFX=  0.200000
 ScaDFX=  0.800000  0.720000  1.000000  0.810000 ScalE2=  1.000000  1.000000
 IRadAn=      5 IRanWt=     -1 IRanGd=            0 ICorTp=0 IEmpDi=  4
 NAtoms=    7 NActive=    7 NUniq=    7 SFac= 1.00D+00 NAtFMM=   60 NAOKFM=F Big=F
 Integral buffers will be    131072 words long.
 Raffenetti 2 integral format.
 Two-electron integral symmetry is turned on.
 Leave Link  301 at Sun Oct 13 20:20:46 2019, MaxMem=  1342177280 cpu:               2.5 elap:               0.5
 (Enter /apps/cent7/gaussian/g16-A.03/g16-haswell/g16/l302.exe)
 NPDir=0 NMtPBC=     1 NCelOv=     1 NCel=       1 NClECP=     1 NCelD=      1
         NCelK=      1 NCelE2=     1 NClLst=     1 CellRange=     0.0.
 One-electron integrals computed using PRISM.
 One-electron integral symmetry used in STVInt
 NBasis=    40 RedAO= T EigKep=  1.02D-02  NBF=    40
 NBsUse=    40 1.00D-06 EigRej= -1.00D+00 NBFU=    40
 Precomputing XC quadrature grid using
 IXCGrd= 4 IRadAn=           5 IRanWt=          -1 IRanGd=           0 AccXCQ= 0.00D+00.
 Generated NRdTot=       0 NPtTot=           0 NUsed=           0 NTot=          32
 NSgBfM=    40    40    40    40    40 MxSgAt=     7 MxSgA2=     7.
 Leave Link  302 at Sun Oct 13 20:20:49 2019, MaxMem=  1342177280 cpu:              11.7 elap:               2.5
 (Enter /apps/cent7/gaussian/g16-A.03/g16-haswell/g16/l303.exe)
 DipDrv:  MaxL=1.
 Leave Link  303 at Sun Oct 13 20:20:50 2019, MaxMem=  1342177280 cpu:               3.5 elap:               0.7
 (Enter /apps/cent7/gaussian/g16-A.03/g16-haswell/g16/l401.exe)
 Initial guess from the checkpoint file:  "methanol_p.chk"
 B after Tr=     0.000000   -0.000000    0.000000
         Rot=    0.999875    0.015815    0.000078   -0.000217 Ang=   1.81 deg.
 Guess basis will be translated and rotated to current coordinates.
 JPrj=2 DoOrth=T DoCkMO=T.
 Generating alternative initial guess.
 ExpMin= 1.61D-01 ExpMax= 5.48D+03 ExpMxC= 8.25D+02 IAcc=2 IRadAn=         4 AccDes= 0.00D+00
 Harris functional with IExCor=  402 and IRadAn=       4 diagonalized for initial guess.
 HarFok:  IExCor=  402 AccDes= 0.00D+00 IRadAn=         4 IDoV= 1 UseB2=F ITyADJ=14
 ICtDFT=  3500011 ScaDFX=  1.000000  1.000000  1.000000  1.000000
 FoFCou: FMM=F IPFlag=           0 FMFlag=      100000 FMFlg1=           0
         NFxFlg=           0 DoJE=T BraDBF=F KetDBF=T FulRan=T
         wScrn=  0.000000 ICntrl=       500 IOpCl=  0 I1Cent=   200000004 NGrid=           0
         NMat0=    1 NMatS0=      1 NMatT0=    0 NMatD0=    1 NMtDS0=    0 NMtDT0=    0
 Petite list used in FoFCou.
 Harris En= -116.098852929081    
 Leave Link  401 at Sun Oct 13 20:20:56 2019, MaxMem=  1342177280 cpu:              28.8 elap:               6.0
 (Enter /apps/cent7/gaussian/g16-A.03/g16-haswell/g16/l502.exe)
 Keep R1 ints in memory in canonical form, NReq=21049463.
 FoFCou: FMM=F IPFlag=           0 FMFlag=           0 FMFlg1=           0
         NFxFlg=           0 DoJE=F BraDBF=F KetDBF=F FulRan=T
         wScrn=  0.000000 ICntrl=       600 IOpCl=  0 I1Cent=           0 NGrid=           0
         NMat0=    1 NMatS0=    820 NMatT0=    0 NMatD0=    1 NMtDS0=    0 NMtDT0=    0
 Symmetry not used in FoFCou.
 Two-electron integral symmetry not used.
 Closed shell SCF:
 Using DIIS extrapolation, IDIIS=  1040.
 NGot=  1342177280 LenX=  1341835823 LenY=  1341833782
 Requested convergence on RMS density matrix=1.00D-08 within 128 cycles.
 Requested convergence on MAX density matrix=1.00D-06.
 Requested convergence on             energy=1.00D-06.
 No special actions if energy rises.
 Integral accuracy reduced to 1.0D-05 until final iterations.

 Cycle   1  Pass 0  IDiag  1:
 E= -116.015219680039    
 DIIS: error= 1.98D-03 at cycle   1 NSaved=   1.
 NSaved= 1 IEnMin= 1 EnMin= -116.015219680039     IErMin= 1 ErrMin= 1.98D-03
 ErrMax= 1.98D-03  0.00D+00 EMaxC= 1.00D-01 BMatC= 1.39D-04 BMatP= 1.39D-04
 IDIUse=3 WtCom= 9.80D-01 WtEn= 1.98D-02
 Coeff-Com:  0.100D+01
 Coeff-En:   0.100D+01
 Coeff:      0.100D+01
 Gap=     1.242 Goal=   None    Shift=    0.000
 GapD=    1.242 DampG=2.000 DampE=1.000 DampFc=2.0000 IDamp=-1.
 RMSDP=4.05D-04 MaxDP=4.37D-03              OVMax= 6.02D-03

 Cycle   2  Pass 0  IDiag  1:
 E= -116.015457644387     Delta-E=       -0.000237964348 Rises=F Damp=F
 DIIS: error= 1.89D-04 at cycle   2 NSaved=   2.
 NSaved= 2 IEnMin= 2 EnMin= -116.015457644387     IErMin= 2 ErrMin= 1.89D-04
 ErrMax= 1.89D-04  0.00D+00 EMaxC= 1.00D-01 BMatC= 1.60D-06 BMatP= 1.39D-04
 IDIUse=3 WtCom= 9.98D-01 WtEn= 1.89D-03
 Coeff-Com: -0.523D-01 0.105D+01
 Coeff-En:   0.000D+00 0.100D+01
 Coeff:     -0.522D-01 0.105D+01
 Gap=     0.389 Goal=   None    Shift=    0.000
 RMSDP=5.86D-05 MaxDP=4.68D-04 DE=-2.38D-04 OVMax= 1.01D-03

 Cycle   3  Pass 0  IDiag  1:
 E= -116.015460392137     Delta-E=       -0.000002747750 Rises=F Damp=F
 DIIS: error= 7.76D-05 at cycle   3 NSaved=   3.
 NSaved= 3 IEnMin= 3 EnMin= -116.015460392137     IErMin= 3 ErrMin= 7.76D-05
 ErrMax= 7.76D-05  0.00D+00 EMaxC= 1.00D-01 BMatC= 3.00D-07 BMatP= 1.60D-06
 IDIUse=1 WtCom= 1.00D+00 WtEn= 0.00D+00
 Coeff-Com: -0.270D-01 0.319D+00 0.708D+00
 Coeff:     -0.270D-01 0.319D+00 0.708D+00
 Gap=     0.389 Goal=   None    Shift=    0.000
 RMSDP=1.17D-05 MaxDP=1.19D-04 DE=-2.75D-06 OVMax= 1.72D-04

[...]
     20  0.598317D-02  0.169863D-01  0.716930D-02  0.453058D-03  0.722288D-04
     21 -0.653332D-02 -0.102994D-01 -0.184861D-01 -0.108724D-02  0.196648D-03
                6             7             8             9            10 
      6  0.565703D-01
      7  0.123141D-01  0.817193D-01
      8 -0.204089D-01  0.638309D-01  0.166888D+00
      9  0.536943D-02  0.704177D-01  0.134853D+00  0.223536D+00
     10 -0.215997D-02 -0.399487D-02  0.143266D-02 -0.462459D-03  0.357094D+00
     11  0.121622D-02 -0.181396D-01  0.167549D-02 -0.451799D-03  0.207980D-01
     12  0.249872D-02 -0.231883D-01  0.331530D-03  0.409944D-02  0.216105D-01
     13 -0.923776D-02  0.221211D-02  0.270188D-02 -0.320926D-02 -0.618403D-03
     14  0.367483D-01  0.836532D-02  0.101720D-01 -0.133810D-01 -0.138790D-02
     15 -0.101291D-01  0.159013D-01  0.239737D-01 -0.296912D-01  0.260583D-02
     16  0.202918D-02  0.720604D-03  0.764943D-03 -0.922319D-03 -0.280725D-03
     17  0.120360D-02  0.563471D-03  0.129583D-02 -0.695065D-03 -0.151670D-03
     18 -0.580455D-02 -0.980453D-03  0.282470D-03 -0.537588D-03  0.388590D-03
     19 -0.136930D-02 -0.878033D-03 -0.109094D-02  0.152979D-02 -0.517026D-03
     20  0.115131D-02 -0.190376D-02 -0.240577D-02  0.394974D-02 -0.329271D-03
     21  0.622188D-03  0.219082D-02  0.375369D-02 -0.257151D-02  0.390148D-03
               11            12            13            14            15 
     11  0.518396D-01
     12 -0.293099D-02  0.587335D-01
     13 -0.166983D-01  0.337923D-01  0.152170D+00
     14 -0.498144D-02  0.107806D-01 -0.791518D-01  0.697558D+00
     15  0.761039D-02 -0.145090D-01  0.370983D-01  0.912032D-01  0.572283D+00
     16 -0.196540D-02  0.815316D-03 -0.629649D-01  0.159627D+00 -0.113769D-01
     17  0.615264D-03 -0.180731D-02  0.122143D+00 -0.404872D+00  0.294472D-01
     18  0.871123D-04  0.761374D-03 -0.149697D-01  0.494352D-01 -0.796338D-01
     19  0.602399D-03  0.176092D-02 -0.280604D-01 -0.538753D-01 -0.858333D-01
     20 -0.742648D-04  0.952088D-03 -0.296045D-01 -0.182689D+00 -0.159298D+00
     21 -0.112541D-02  0.168551D-02 -0.553221D-01 -0.176543D+00 -0.336723D+00
               16            17            18            19            20 
     16  0.587709D-01
     17 -0.133397D+00  0.424361D+00
     18  0.112534D-01 -0.397823D-01  0.695472D-01
     19  0.132038D-02  0.938803D-02  0.141845D-01  0.265442D-01
     20 -0.117092D-01 -0.139486D-01 -0.343318D-01  0.371105D-01  0.182059D+00
     21 -0.361190D-04  0.360931D-02  0.113942D-01  0.603978D-01  0.180408D+00
               21 
     21  0.344079D+00
 FormGI is forming the generalized inverse of G from B-inverse, IUseBI=4.
 Force constants in internal coordinates: 
                1             2             3             4             5 
      1  0.364809D+00
      2  0.144282D-02  0.364803D+00
      3  0.134192D-02  0.134231D-02  0.359947D+00
      4  0.190640D-02  0.190681D-02  0.357772D-02  0.220179D+00
      5 -0.135465D-02  0.473769D-03  0.128039D-03  0.622112D-02  0.471886D+00
      6  0.474174D-03 -0.135458D-02  0.127741D-03  0.622067D-02 -0.119816D-03
      7  0.442327D-02  0.442320D-02 -0.320892D-02 -0.305822D-01  0.468688D-04
      8  0.437661D-02 -0.299368D-02  0.541399D-02 -0.307526D-01  0.737780D-03
      9 -0.205308D-02 -0.234527D-02 -0.212254D-02  0.367297D-01  0.286943D-02
     10 -0.299360D-02  0.437700D-02  0.541432D-02 -0.307523D-01  0.133824D-02
     11 -0.234532D-02 -0.205347D-02 -0.212275D-02  0.367294D-01 -0.130231D-02
     12 -0.229801D-02 -0.229799D-02 -0.495644D-02  0.349409D-01 -0.398226D-02
     13  0.661075D-04  0.647031D-03  0.707152D-03  0.129534D-01 -0.236421D-02
     14  0.646811D-03  0.658751D-04  0.707242D-03  0.129552D-01  0.358384D-03
     15 -0.412261D-03 -0.412383D-03 -0.582981D-03 -0.107495D-01  0.615364D-02
     16 -0.509384D-04 -0.297021D-02  0.290584D-02  0.565795D-02  0.345878D-02
     17 -0.109317D-03 -0.302840D-02  0.245630D-02 -0.247645D-02 -0.347093D-02
     18  0.302851D-02  0.109020D-03 -0.245656D-02  0.247747D-02  0.417032D-02
     19  0.297013D-02  0.508309D-04 -0.290611D-02 -0.565692D-02 -0.275940D-02
     20 -0.289001D-02  0.294835D-02  0.224769D-03  0.406782D-02  0.303009D-02
     21 -0.294838D-02  0.289016D-02 -0.224774D-03 -0.406658D-02 -0.389962D-02
                6             7             8             9            10 
      6  0.471890D+00
      7  0.472782D-04  0.539416D-01
      8  0.133841D-02  0.102254D-01  0.574526D-01
      9 -0.130388D-02 -0.432890D-01 -0.479368D-01  0.151811D+00
     10  0.737462D-03  0.102249D-01  0.108471D-01 -0.175438D-03  0.574531D-01
     11  0.286975D-02 -0.432872D-01 -0.174830D-03 -0.191053D-01 -0.479366D-01
     12 -0.398129D-02 -0.457670D-03 -0.446232D-01 -0.236218D-01 -0.446234D-01
     13  0.358631D-03 -0.332974D-02 -0.598746D-02  0.178075D-01  0.201753D-02
     14 -0.236430D-02 -0.332921D-02  0.201721D-02 -0.824861D-02 -0.598780D-02
     15  0.615374D-02  0.392717D-02  0.203766D-02 -0.584771D-02  0.203764D-02
     16  0.275926D-02 -0.120669D-01  0.856753D-02  0.287630D-02 -0.415516D-03
     17 -0.417071D-02 -0.116303D-01  0.925942D-02  0.254839D-02  0.276496D-03
     18  0.347069D-02  0.116300D-01 -0.276657D-03  0.104595D-01 -0.926006D-02
     19 -0.345927D-02  0.120666D-01  0.415235D-03  0.101316D-01 -0.856805D-02
     20  0.389964D-02 -0.218238D-03 -0.100499D-01 -0.119607D-01  0.935799D-02
     21 -0.303032D-02  0.218371D-03 -0.935800D-02 -0.122887D-01  0.100500D-01
               11            12            13            14            15 
     11  0.151810D+00
     12 -0.236215D-01  0.150063D+00
     13 -0.824744D-02 -0.879164D-03  0.101804D+00
     14  0.178057D-01 -0.875891D-03 -0.274800D-01  0.101804D+00
     15 -0.584811D-02  0.214943D-02 -0.464124D-01 -0.464135D-01  0.639958D-01
     16 -0.101311D-01  0.109263D-01  0.131318D-02 -0.414383D-03  0.379927D-02
     17 -0.104581D-01  0.945831D-02  0.104132D-03 -0.162304D-02 -0.325601D-02
     18 -0.254790D-02 -0.945897D-02  0.162409D-02 -0.104324D-03  0.325578D-02
     19 -0.287490D-02 -0.109269D-01  0.415043D-03 -0.131298D-02 -0.379949D-02
     20  0.122882D-01  0.733897D-03 -0.948733D-03  0.215782D-02  0.352741D-02
     21  0.119612D-01 -0.734075D-03 -0.215778D-02  0.949168D-03 -0.352786D-02
               16            17            18            19            20 
     16  0.145002D-01
     17  0.829111D-02  0.142886D-01
     18 -0.200069D-02 -0.799866D-02  0.142896D-01
     19 -0.820975D-02 -0.200113D-02  0.829167D-02  0.145003D-01
     20 -0.252836D-02 -0.863156D-02 -0.263391D-02 -0.873710D-02  0.153359D-01
     21 -0.873742D-02 -0.263404D-02 -0.863187D-02 -0.252849D-02  0.923269D-02
               21 
     21  0.153361D-01
 Leave Link  716 at Sun Oct 13 20:26:28 2019, MaxMem=  1342177280 cpu:               4.9 elap:               0.9
 (Enter /apps/cent7/gaussian/g16-A.03/g16-haswell/g16/l103.exe)

 GradGradGradGradGradGradGradGradGradGradGradGradGradGradGradGradGradGrad
 Berny optimization.
 Red2BG is reusing G-inverse.
 Internal  Forces:  Max     0.000072415 RMS     0.000029075
 Search for a local minimum.
 Step number   1 out of a maximum of    2
 All quantities printed in internal units (Hartrees-Bohrs-Radians)
 Second derivative matrix not updated -- analytic derivatives used.
 ITU=  0
     Eigenvalues ---    0.00154   0.02041   0.06255   0.06345   0.11673
     Eigenvalues ---    0.11863   0.13110   0.19083   0.20079   0.29013
     Eigenvalues ---    0.35994   0.36369   0.36725   0.47212   0.47272
 Angle between quadratic step and forces=  61.99 degrees.
 Linear search not attempted -- first point.
 Iteration  1 RMS(Cart)=  0.00028313 RMS(Int)=  0.00000022
 Iteration  2 RMS(Cart)=  0.00000015 RMS(Int)=  0.00000017
 ITry= 1 IFail=0 DXMaxC= 7.49D-04 DCOld= 1.00D+10 DXMaxT= 3.00D-01 DXLimC= 3.00D+00 Rises=F
 Variable       Old X    -DE/DX   Delta X   Delta X   Delta X     New X
                                 (Linear)    (Quad)   (Total)
    R1        2.05580  -0.00001   0.00000  -0.00004  -0.00004   2.05577
    R2        2.05581  -0.00001   0.00000  -0.00004  -0.00004   2.05577
    R3        2.05839  -0.00002   0.00000  -0.00006  -0.00006   2.05832
    R4        2.87575   0.00007   0.00000   0.00023   0.00023   2.87597
    R5        1.85774  -0.00007   0.00000  -0.00020  -0.00020   1.85755
    R6        1.85774  -0.00007   0.00000  -0.00019  -0.00019   1.85755
    A1        1.95224  -0.00001   0.00000  -0.00000  -0.00000   1.95224
    A2        1.98113  -0.00000   0.00000   0.00003   0.00003   1.98116
    A3        1.82075   0.00001   0.00000   0.00002   0.00002   1.82077
    A4        1.98111  -0.00000   0.00000   0.00005   0.00005   1.98116
    A5        1.82076   0.00001   0.00000   0.00001   0.00001   1.82077
    A6        1.89190  -0.00001   0.00000  -0.00012  -0.00012   1.89178
    A7        1.99316   0.00001   0.00000   0.00041   0.00041   1.99357
    A8        1.99315   0.00001   0.00000   0.00043   0.00043   1.99357
    A9        1.91117   0.00000   0.00000   0.00051   0.00051   1.91168
    D1       -3.05794   0.00002   0.00000   0.00090   0.00090  -3.05704
    D2        1.00690  -0.00002   0.00000  -0.00059  -0.00059   1.00632
    D3       -1.00723   0.00002   0.00000   0.00091   0.00091  -1.00632
    D4        3.05762  -0.00001   0.00000  -0.00057  -0.00057   3.05704
    D5        1.10900   0.00002   0.00000   0.00091   0.00091   1.10991
    D6       -1.10934  -0.00001   0.00000  -0.00057  -0.00057  -1.10991
         Item               Value     Threshold  Converged?
 Maximum Force            0.000072     0.000450     YES
 RMS     Force            0.000029     0.000300     YES
 Maximum Displacement     0.000749     0.001800     YES
 RMS     Displacement     0.000283     0.001200     YES
 Predicted change in Energy=-6.439089D-08
 Optimization completed.
    -- Stationary point found.
                           ----------------------------
                           !   Optimized Parameters   !
                           ! (Angstroms and Degrees)  !
 --------------------------                            --------------------------
 ! Name  Definition              Value          Derivative Info.                !
 --------------------------------------------------------------------------------
 ! R1    R(1,2)                  1.0879         -DE/DX =    0.0                 !
 ! R2    R(1,3)                  1.0879         -DE/DX =    0.0                 !
 ! R3    R(1,4)                  1.0893         -DE/DX =    0.0                 !
 ! R4    R(1,5)                  1.5218         -DE/DX =    0.0001              !
 ! R5    R(5,6)                  0.9831         -DE/DX =   -0.0001              !
 ! R6    R(5,7)                  0.9831         -DE/DX =   -0.0001              !
 ! A1    A(2,1,3)              111.8554         -DE/DX =    0.0                 !
 ! A2    A(2,1,4)              113.5103         -DE/DX =    0.0                 !
 ! A3    A(2,1,5)              104.3213         -DE/DX =    0.0                 !
 ! A4    A(3,1,4)              113.5092         -DE/DX =    0.0                 !
 ! A5    A(3,1,5)              104.322          -DE/DX =    0.0                 !
 ! A6    A(4,1,5)              108.3981         -DE/DX =    0.0                 !
 ! A7    A(1,5,6)              114.1996         -DE/DX =    0.0                 !
 ! A8    A(1,5,7)              114.1988         -DE/DX =    0.0                 !
 ! A9    A(6,5,7)              109.5022         -DE/DX =    0.0                 !
 ! D1    D(2,1,5,6)           -175.2072         -DE/DX =    0.0                 !
 ! D2    D(2,1,5,7)             57.6913         -DE/DX =    0.0                 !
 ! D3    D(3,1,5,6)            -57.7099         -DE/DX =    0.0                 !
 ! D4    D(3,1,5,7)            175.1886         -DE/DX =    0.0                 !
 ! D5    D(4,1,5,6)             63.541          -DE/DX =    0.0                 !
 ! D6    D(4,1,5,7)            -63.5605         -DE/DX =    0.0                 !
 --------------------------------------------------------------------------------
 GradGradGradGradGradGradGradGradGradGradGradGradGradGradGradGradGradGrad

 Leave Link  103 at Sun Oct 13 20:26:30 2019, MaxMem=  1342177280 cpu:              12.2 elap:               2.5
 (Enter /apps/cent7/gaussian/g16-A.03/g16-haswell/g16/l9999.exe)

 ----------------------------------------------------------------------

 Electric dipole moment (input orientation):
 (Debye = 10**-18 statcoulomb cm , SI units = C m)
                  (au)            (Debye)         (10**-30 SI)
   Tot        0.795350D+00      0.202158D+01      0.674326D+01
   x         -0.370188D+00     -0.940924D+00     -0.313858D+01
   y          0.279425D+00      0.710228D+00      0.236907D+01
   z         -0.646115D+00     -0.164226D+01     -0.547799D+01

 Dipole polarizability, Alpha (input orientation).
 (esu units = cm**3 , SI units = C**2 m**2 J**-1)
 Alpha(0;0):
               (au)            (10**-24 esu)      (10**-40 SI)
   iso        0.142496D+02      0.211157D+01      0.234943D+01
   aniso      0.276405D+01      0.409590D+00      0.455730D+00
   xx         0.125003D+02      0.185235D+01      0.206101D+01
   yx        -0.117855D+00     -0.174642D-01     -0.194316D-01
   yy         0.148679D+02      0.220319D+01      0.245138D+01
   zx        -0.217979D+00     -0.323012D-01     -0.359399D-01
   zy        -0.352884D+00     -0.522920D-01     -0.581827D-01
   zz         0.153805D+02      0.227916D+01      0.253590D+01

 ----------------------------------------------------------------------

 Dipole orientation:
     6         -1.01983699         -0.56231404         -1.11405857
     1         -0.35340649          1.03853612         -2.21835560
     1         -1.04703296         -2.29585768         -2.21878977
     1         -2.78354082         -0.19557560         -0.11816538
     8          1.05036390         -0.99319301          0.83492359
     1          0.78865685         -2.48836382          1.90598778
     1          1.40691052          0.48223990          1.90598311

 Electric dipole moment (dipole orientation):
 (Debye = 10**-18 statcoulomb cm , SI units = C m)
                  (au)            (Debye)         (10**-30 SI)
   Tot        0.795350D+00      0.202158D+01      0.674326D+01
   x          0.000000D+00      0.000000D+00      0.000000D+00
   y          0.000000D+00      0.000000D+00      0.000000D+00
   z          0.795350D+00      0.202158D+01      0.674326D+01

 Dipole polarizability, Alpha (dipole orientation).
 (esu units = cm**3 , SI units = C**2 m**2 J**-1)
 Alpha(0;0):
               (au)            (10**-24 esu)      (10**-40 SI)
   iso        0.142496D+02      0.211157D+01      0.234943D+01
   aniso      0.276405D+01      0.409590D+00      0.455730D+00
   xx         0.133331D+02      0.197576D+01      0.219832D+01
   yx         0.285966D+00      0.423758D-01      0.471494D-01
   yy         0.146472D+02      0.217049D+01      0.241500D+01
   zx         0.132485D+01      0.196322D+00      0.218438D+00
   zy        -0.275721D+00     -0.408577D-01     -0.454603D-01
   zz         0.147684D+02      0.218845D+01      0.243498D+01

 ----------------------------------------------------------------------
 1\1\GINC-BROWN-FE02\Freq\RB3LYP\6-31G(d)\C1H5O1(1+)\FINEJ\13-Oct-2019\
 0\\#P Geom=AllCheck Guess=TCheck SCRF=Check GenChk RB3LYP/6-31G(d) Fre
 q\\Title Card Required\\1,1\C,-0.1739260275,0.0214893774,0.8346445495\
 H,0.3321362044,-0.941435308,0.8476055558\H,0.1682660158,0.66968464,1.6
 385378309\H,-1.2584765146,-0.0584222612,0.7727442281\O,0.3311676838,0.
 6951537769,-0.432979231\H,0.0168154234,1.619108965,-0.5509845167\H,0.1
 630447947,0.1837076399,-1.2555307066\\Version=ES64L-G16RevA.03\State=1
 -A\HF=-116.0157438\RMSD=7.513e-10\RMSF=4.845e-05\ZeroPoint=0.0643768\T
 hermal=0.0643768\Dipole=-0.3701879,0.2794254,-0.6461151\DipoleDeriv=0.
 3022603,0.1022678,-0.1756399,0.1203615,0.3082096,-0.3084794,-0.2124898
 ,-0.3122175,0.7365509,0.1005996,0.0294998,0.040117,0.0027199,0.1076125
 ,0.017577,0.0567837,-0.0305083,0.0774184,0.1132241,-0.0475184,0.003524
 ,-0.0402937,0.0672824,-0.0142064,0.0266908,0.0379185,0.1051275,0.05494
 1,-0.0092322,0.0041852,0.0165077,0.1053628,0.0444364,-0.0482454,0.0391
 041,0.0358452,-0.3943133,-0.0641765,0.1243402,-0.0825819,-0.462867,0.1
 856787,0.1618068,0.1894888,-0.7157966,0.4067739,0.0129314,0.0246388,0.
 012122,0.5255461,-0.0555033,0.0256304,0.0044092,0.2969556,0.4165144,-0
 .0237719,-0.0211654,-0.0288355,0.3488536,0.1304971,-0.0101765,0.071805
 2,0.4638991\Polar=12.500254,-0.1178545,14.8678962,-0.2179792,-0.352883
 6,15.3805066\Quadrupole=-2.7035984,0.5791491,2.1244494,-0.2548553,-0.0
 665337,-0.9913995\PG=C01 [X(C1H5O1)]\NImag=0\\0.61617578,-0.04525456,0
 .59808168,0.08172022,0.13013557,0.41841117,-0.12291773,0.13187619,-0.0
 0210775,0.11983475,0.12140204,-0.28077215,0.00010510,-0.13010042,0.295
 74288,0.00269600,-0.01633502,-0.04912696,-0.00427226,-0.00357555,0.056
 57029,-0.08629116,-0.06122440,-0.07665517,0.00651210,0.00850807,0.0123
 1410,0.08171925,-0.05724094,-0.16631690,-0.14278524,-0.01039848,-0.011
 30889,-0.02040887,0.06383088,0.16688821,-0.06823645,-0.12500160,-0.200
 20484,0.00088295,0.00072698,0.00536943,0.07041774,0.13485273,0.2235362
 8,-0.34336139,-0.01807892,-0.02237268,-0.00832123,-0.00228288,-0.00215
 997,-0.00399487,0.00143266,-0.00046246,0.35709364,-0.01211609,-0.05667
 780,-0.00440553,0.02751897,0.00760319,0.00121622,-0.01813957,0.0016754
 9,-0.00045180,0.02079798,0.05183956,-0.03451823,-0.00563962,-0.0532695
 7,-0.00027252,-0.00168630,0.00249872,-0.02318830,0.00033153,0.00409944
 ,0.02161054,-0.00293099,0.05873349,-0.06786050,-0.00249061,0.01184825,
 0.00512234,0.00310085,-0.00923776,0.00221211,0.00270188,-0.00320926,-0
 .00061840,-0.01669829,0.03379227,0.15216981,-0.01522000,-0.10288452,0.
 00175622,-0.01835715,-0.01230258,0.03674829,0.00836532,0.01017202,-0.0
 1338100,-0.00138790,-0.00498144,0.01078060,-0.07915185,0.69755810,0.03
 777660,0.00439911,-0.10159681,0.00382825,0.00266479,-0.01012912,0.0159
 0126,0.02397369,-0.02969121,0.00260583,0.00761039,-0.01450897,0.037098
 28,0.09120317,0.57228338,0.00345036,-0.01233096,-0.00176250,-0.0010165
 6,-0.00098971,0.00202918,0.00072060,0.00076494,-0.00092232,-0.00028073
 ,-0.00196540,0.00081532,-0.06296492,0.15962689,-0.01137692,0.05877086,
 0.00244638,-0.00841659,0.00802457,-0.00099217,0.00096531,0.00120360,0.
 00056347,0.00129583,-0.00069507,-0.00015167,0.00061526,-0.00180731,0.1
 2214251,-0.40487245,0.02944720,-0.13339655,0.42436127,-0.01290481,0.02
 274100,0.00427316,0.00302856,0.00156831,-0.00580455,-0.00098045,0.0002
 8247,-0.00053759,0.00038859,0.00008711,0.00076137,-0.01496973,0.049435
 24,-0.07963378,0.01125336,-0.03978230,0.06954719,0.00080464,0.00750327
 ,0.00932964,0.00078633,0.00036206,-0.00136930,-0.00087803,-0.00109094,
 0.00152979,-0.00051703,0.00060240,0.00176092,-0.02806044,-0.05387531,-
 0.08583330,0.00132038,0.00938803,0.01418448,0.02654416,0.00598317,0.01
 698628,0.00716930,0.00045306,0.00007223,0.00115131,-0.00190376,-0.0024
 0577,0.00394974,-0.00032927,-0.00007426,0.00095209,-0.02960449,-0.1826
 8913,-0.15929835,-0.01170921,-0.01394864,-0.03433184,0.03711049,0.1820
 5929,-0.00653332,-0.01029944,-0.01848615,-0.00108724,0.00019665,0.0006
 2219,0.00219082,0.00375369,-0.00257151,0.00039015,-0.00112541,0.001685
 51,-0.05532206,-0.17654253,-0.33672349,-0.00003612,0.00360931,0.011394
 19,0.06039777,0.18040773,0.34407926\\0.00000465,0.00002716,-0.00006037
 ,0.00000842,-0.00000928,-0.00000940,0.00000522,0.00001454,0.00000459,-
 0.00002030,-0.00000149,0.00000222,0.00009150,-0.00006014,0.00014101,-0
 .00004946,0.00005784,-0.00001850,-0.00004003,-0.00002864,-0.00005955\\
 \@


 FRICTION IS A DRAG,
 AND ENTROPY AIN'T WHAT IT USED TO BE.
 Job cpu time:       0 days  0 hours  4 minutes 52.1 seconds.
 Elapsed time:       0 days  0 hours  1 minutes  0.3 seconds.
 File lengths (MBytes):  RWF=      6 Int=      0 D2E=      0 Chk=      1 Scr=      1
 Normal termination of Gaussian 16 at Sun Oct 13 20:26:31 2019.
