Title Card Required                                                     
Freq      RB3LYP                                                      6-31G(d)            
Number of atoms                            I                7
Info1-9                                    I   N=           9
          24          24        1002           0           0         100
           6          18        -502
Full Title                                 C   N=           2
Title Card Required     
Route                                      C   N=           6
#P opt freq b3lyp/6-31g(d) geom=connectivity temperature=0.0
01          
Charge                                     I                1
Multiplicity                               I                1
Number of electrons                        I               18
Number of alpha electrons                  I                9
Number of beta electrons                   I                9
Number of basis functions                  I               40
Number of independent functions            I               40
Number of point charges in /Mol/           I                0
Number of translation vectors              I                0
Atomic numbers                             I   N=           7
           6           1           1           1           8           1
           1
Nuclear charges                            R   N=           7
  6.00000000E+00  1.00000000E+00  1.00000000E+00  1.00000000E+00  8.00000000E+00
  1.00000000E+00  1.00000000E+00
Current cartesian coordinates              R   N=          21
 -1.50735564E+00  1.01466866E-06  3.56738535E-02 -2.08928243E+00  1.70307108E+00
 -9.57923821E-01 -2.08935229E+00 -1.70270336E+00 -9.58520232E-01 -2.01401655E+00
 -3.58194734E-04  2.03072928E+00  1.36085618E+00 -1.94394489E-07 -1.72366599E-01
  2.17497776E+00 -1.51713624E+00  5.25278808E-01  2.17495787E+00  1.51712217E+00
  5.25325638E-01
Number of symbols in /Mol/                 I                0
Force Field                                I                0
Atom Types                                 C   N=           7
                                                            
                        
Int Atom Types                             I   N=           7
           0           0           0           0           0           0
           0
MM charges                                 R   N=           7
  0.00000000E+00  0.00000000E+00  0.00000000E+00  0.00000000E+00  0.00000000E+00
  0.00000000E+00  0.00000000E+00
Integer atomic weights                     I   N=           7
          12           1           1           1          16           1
           1
Real atomic weights                        R   N=           7
  1.20000000E+01  1.00782504E+00  1.00782504E+00  1.00782504E+00  1.59949146E+01
  1.00782504E+00  1.00782504E+00
Atom fragment info                         I   N=           7
           0           0           0           0           0           0
           0
Atom residue num                           I   N=           7
           0           0           0           0           0           0
           0
Nuclear spins                              I   N=           7
           0           1           1           1           0           1
           1
Nuclear ZEff                               R   N=           7
 -3.60000000E+00 -1.00000000E+00 -1.00000000E+00 -1.00000000E+00 -5.60000000E+00
 -1.00000000E+00 -1.00000000E+00
Nuclear ZNuc                               R   N=           7
  6.00000000E+00  1.00000000E+00  1.00000000E+00  1.00000000E+00  8.00000000E+00
  1.00000000E+00  1.00000000E+00
Nuclear QMom                               R   N=           7
  0.00000000E+00  0.00000000E+00  0.00000000E+00  0.00000000E+00  0.00000000E+00
  0.00000000E+00  0.00000000E+00
Nuclear GFac                               R   N=           7
  0.00000000E+00  2.79284600E+00  2.79284600E+00  2.79284600E+00  0.00000000E+00
  2.79284600E+00  2.79284600E+00
MicOpt                                     I   N=           7
          -1          -1          -1          -1          -1          -1
          -1
Number of residues                         I                0
Number of secondary structures             I                0
Redundant internal dimensions              I   N=           4
          21           6           9           6
Redundant internal coordinate indices      I   N=          84
           1           2           0           0           1           3
           0           0           1           4           0           0
           1           5           0           0           5           6
           0           0           5           7           0           0
           2           1           3           0           2           1
           4           0           2           1           5           0
           3           1           4           0           3           1
           5           0           4           1           5           0
           1           5           6           0           1           5
           7           0           6           5           7           0
           2           1           5           6           2           1
           5           7           3           1           5           6
           3           1           5           7           4           1
           5           6           4           1           5           7
Redundant internal coordinates             R   N=          21
  2.05580223E+00  2.05580742E+00  2.05838567E+00  2.87574684E+00  1.85774186E+00
  1.85773956E+00  1.95224467E+00  1.98112769E+00  1.82075074E+00  1.98110884E+00
  1.82076270E+00  1.89190333E+00  1.99315895E+00  1.99314504E+00  1.91117459E+00
 -3.05794296E+00  1.00690327E+00 -1.00722853E+00  3.05761770E+00  1.10899916E+00
 -1.10933992E+00
ZRed-IntVec                                I   N=          21
           0           0           0           0           0           0
           0           0           0           0           0           0
           0           0           0           0           0           0
           0           0           0
ZRed-FPVec                                 R   N=          21
  0.00000000E+00  0.00000000E+00  0.00000000E+00  0.00000000E+00  0.00000000E+00
  0.00000000E+00  0.00000000E+00  0.00000000E+00  0.00000000E+00  0.00000000E+00
  0.00000000E+00  0.00000000E+00  0.00000000E+00  0.00000000E+00  0.00000000E+00
  0.00000000E+00  0.00000000E+00  0.00000000E+00  0.00000000E+00  0.00000000E+00
  0.00000000E+00
ZRed-Constraint1                           R   N=          21
  2.05580223E+00  2.05580742E+00  2.05838567E+00  2.87574684E+00  1.85774186E+00
  1.85773956E+00  1.95224467E+00  1.98112769E+00  1.82075074E+00  1.98110884E+00
  1.82076270E+00  1.89190333E+00  1.99315895E+00  1.99314504E+00  1.91117459E+00
 -3.05794296E+00  1.00690327E+00 -1.00722853E+00  3.05761770E+00  1.10899916E+00
 -1.10933992E+00
ZRed-Constraint2                           R   N=          21
  2.02200695E+00  2.02200695E+00  2.02200696E+00  2.70230836E+00  1.81413707E+00
  1.81413708E+00  1.91063323E+00  1.91063324E+00  1.91063324E+00  1.91063324E+00
  1.91063324E+00  1.91063324E+00  1.91063323E+00  1.91063324E+00  1.91063323E+00
  2.78140283E+00  6.87007733E-01 -1.40738738E+00  2.78140283E+00  6.87007727E-01
 -1.40738737E+00
SymInf integers                            I   N=          26
           1           1           1           1           1           0
           0           0           0           0           0           0
           0           0           0           0           0           0
           0           0           0           0           0           0
           0           0
RotTr to input orientation                 R   N=          12
  2.63117090E-01  4.46568599E-01 -8.55187630E-01  9.10877180E-02 -8.93960861E-01
 -4.38790390E-01 -9.60454280E-01  3.75561610E-02 -2.75893295E-01  1.02201484E-01
  7.12407867E-01  2.98020337E-01
Number of contracted shells                I               18
Number of primitive shells                 I               42
Pure/Cartesian d shells                    I                1
Pure/Cartesian f shells                    I                0
Highest angular momentum                   I                2
Largest degree of contraction              I                6
Shell types                                I   N=          18
           0          -1          -1           2           0           0
           0           0           0           0           0          -1
          -1           2           0           0           0           0
Number of primitives per shell             I   N=          18
           6           3           1           1           3           1
           3           1           3           1           6           3
           1           1           3           1           3           1
Shell to atom map                          I   N=          18
           1           1           1           1           2           2
           3           3           4           4           5           5
           5           5           6           6           7           7
Primitive exponents                        R   N=          42
  3.04752488E+03  4.57369518E+02  1.03948685E+02  2.92101553E+01  9.28666296E+00
  3.16392696E+00  7.86827235E+00  1.88128854E+00  5.44249258E-01  1.68714478E-01
  8.00000000E-01  1.87311370E+01  2.82539436E+00  6.40121692E-01  1.61277759E-01
  1.87311370E+01  2.82539436E+00  6.40121692E-01  1.61277759E-01  1.87311370E+01
  2.82539436E+00  6.40121692E-01  1.61277759E-01  5.48467166E+03  8.25234946E+02
  1.88046958E+02  5.29645000E+01  1.68975704E+01  5.79963534E+00  1.55396162E+01
  3.59993359E+00  1.01376175E+00  2.70005823E-01  8.00000000E-01  1.87311370E+01
  2.82539436E+00  6.40121692E-01  1.61277759E-01  1.87311370E+01  2.82539436E+00
  6.40121692E-01  1.61277759E-01
Contraction coefficients                   R   N=          42
  1.83473713E-03  1.40373228E-02  6.88426223E-02  2.32184443E-01  4.67941348E-01
  3.62311985E-01 -1.19332420E-01 -1.60854152E-01  1.14345644E+00  1.00000000E+00
  1.00000000E+00  3.34946043E-02  2.34726953E-01  8.13757326E-01  1.00000000E+00
  3.34946043E-02  2.34726953E-01  8.13757326E-01  1.00000000E+00  3.34946043E-02
  2.34726953E-01  8.13757326E-01  1.00000000E+00  1.83107443E-03  1.39501722E-02
  6.84450781E-02  2.32714336E-01  4.70192898E-01  3.58520853E-01 -1.10777550E-01
 -1.48026263E-01  1.13076702E+00  1.00000000E+00  1.00000000E+00  3.34946043E-02
  2.34726953E-01  8.13757326E-01  1.00000000E+00  3.34946043E-02  2.34726953E-01
  8.13757326E-01  1.00000000E+00
P(S=P) Contraction coefficients            R   N=          42
  0.00000000E+00  0.00000000E+00  0.00000000E+00  0.00000000E+00  0.00000000E+00
  0.00000000E+00  6.89990666E-02  3.16423961E-01  7.44308291E-01  1.00000000E+00
  0.00000000E+00  0.00000000E+00  0.00000000E+00  0.00000000E+00  0.00000000E+00
  0.00000000E+00  0.00000000E+00  0.00000000E+00  0.00000000E+00  0.00000000E+00
  0.00000000E+00  0.00000000E+00  0.00000000E+00  0.00000000E+00  0.00000000E+00
  0.00000000E+00  0.00000000E+00  0.00000000E+00  0.00000000E+00  7.08742682E-02
  3.39752839E-01  7.27158577E-01  1.00000000E+00  0.00000000E+00  0.00000000E+00
  0.00000000E+00  0.00000000E+00  0.00000000E+00  0.00000000E+00  0.00000000E+00
  0.00000000E+00  0.00000000E+00
Coordinates of each shell                  R   N=          54
 -1.50735564E+00  1.01466866E-06  3.56738535E-02 -1.50735564E+00  1.01466866E-06
  3.56738535E-02 -1.50735564E+00  1.01466866E-06  3.56738535E-02 -1.50735564E+00
  1.01466866E-06  3.56738535E-02 -2.08928243E+00  1.70307108E+00 -9.57923821E-01
 -2.08928243E+00  1.70307108E+00 -9.57923821E-01 -2.08935229E+00 -1.70270336E+00
 -9.58520232E-01 -2.08935229E+00 -1.70270336E+00 -9.58520232E-01 -2.01401655E+00
 -3.58194734E-04  2.03072928E+00 -2.01401655E+00 -3.58194734E-04  2.03072928E+00
  1.36085618E+00 -1.94394489E-07 -1.72366599E-01  1.36085618E+00 -1.94394489E-07
 -1.72366599E-01  1.36085618E+00 -1.94394489E-07 -1.72366599E-01  1.36085618E+00
 -1.94394489E-07 -1.72366599E-01  2.17497776E+00 -1.51713624E+00  5.25278808E-01
  2.17497776E+00 -1.51713624E+00  5.25278808E-01  2.17495787E+00  1.51712217E+00
  5.25325638E-01  2.17495787E+00  1.51712217E+00  5.25325638E-01
Num ILSW                                   I              100
ILSW                                       I   N=         100
           0           1           0           0           2           0
           0           0           0           0         402          -1
           5           0           0           0           2           0
           0           0           0           0           1           0
           1           0           0           0           0           0
           0           0      100000           0          -1           0
           0           0           0           0           0           0
           0           0           0           1           0           0
           0 -2000000000           1           0           0           0
           0           0           4          52           0           0
           0           0           5           0           0           0
           0           0           0           7           0           1
           0           0           0           0           0           0
           0           0           0           0           0           0
           0           0           0           0           0           0
           0           0           0           0           0           0
           0           0           0           0
Num RLSW                                   I               52
RLSW                                       R   N=          52
  8.00000000E-01  7.20000000E-01  1.00000000E+00  8.10000000E-01  2.00000000E-01
  0.00000000E+00  0.00000000E+00  1.00000000E+00  0.00000000E+00  0.00000000E+00
  0.00000000E+00  0.00000000E+00  1.00000000E+00  0.00000000E+00  0.00000000E+00
  0.00000000E+00  0.00000000E+00  1.00000000E+00  0.00000000E+00  0.00000000E+00
  0.00000000E+00  0.00000000E+00  1.00000000E+00  0.00000000E+00  0.00000000E+00
  0.00000000E+00  0.00000000E+00  1.00000000E+00  0.00000000E+00  0.00000000E+00
  0.00000000E+00  0.00000000E+00  1.00000000E+00  0.00000000E+00  0.00000000E+00
  0.00000000E+00  0.00000000E+00  0.00000000E+00  1.00000000E+00  1.00000000E+00
  0.00000000E+00  1.00000000E+00  0.00000000E+00  0.00000000E+00  0.00000000E+00
  0.00000000E+00  0.00000000E+00  0.00000000E+00  0.00000000E+00  0.00000000E+00
  0.00000000E+00  0.00000000E+00
MxBond                                     I                4
NBond                                      I   N=           7
           4           1           1           1           3           1
           1
IBond                                      I   N=          28
           2           3           4           5           1           0
           0           0           1           0           0           0
           1           0           0           0           1           6
           7           0           5           0           0           0
           5           0           0           0
RBond                                      R   N=          28
  1.00000000E+00  1.00000000E+00  1.00000000E+00  1.00000000E+00  1.00000000E+00
  0.00000000E+00  0.00000000E+00  0.00000000E+00  1.00000000E+00  0.00000000E+00
  0.00000000E+00  0.00000000E+00  1.00000000E+00  0.00000000E+00  0.00000000E+00
  0.00000000E+00  1.00000000E+00  1.00000000E+00  1.00000000E+00  0.00000000E+00
  1.00000000E+00  0.00000000E+00  0.00000000E+00  0.00000000E+00  1.00000000E+00
  0.00000000E+00  0.00000000E+00  0.00000000E+00
Virial Ratio                               R      2.009549186764920E+00
SCF Energy                                 R     -1.160157438360913E+02
Total Energy                               R     -1.160157438360913E+02
RMS Force                                  R      4.845428513874645E-05
RMS Density                                R      7.512963574798009E-10
NImag                                      I                0
Job Status                                 I                1
Nuclear derivative order                   I                2
External E-field                           R   N=          35
  0.00000000E+00  0.00000000E+00  0.00000000E+00  0.00000000E+00  0.00000000E+00
  0.00000000E+00  0.00000000E+00  0.00000000E+00  0.00000000E+00  0.00000000E+00
  0.00000000E+00  0.00000000E+00  0.00000000E+00  0.00000000E+00  0.00000000E+00
  0.00000000E+00  0.00000000E+00  0.00000000E+00  0.00000000E+00  0.00000000E+00
  0.00000000E+00  0.00000000E+00  0.00000000E+00  0.00000000E+00  0.00000000E+00
  0.00000000E+00  0.00000000E+00  0.00000000E+00  0.00000000E+00  0.00000000E+00
  0.00000000E+00  0.00000000E+00  0.00000000E+00  0.00000000E+00  0.00000000E+00
IOpCl                                      I                0
IROHF                                      I                0
Alpha Orbital Energies                     R   N=          40
 -1.95390058E+01 -1.04969455E+01 -1.39536364E+00 -9.80803819E-01 -8.96896303E-01
 -7.83350374E-01 -7.25587374E-01 -6.61092826E-01 -6.26592463E-01 -2.35639351E-01
 -1.39302650E-01 -1.35486452E-01 -8.30061044E-02 -5.19326992E-02 -4.93750062E-02
  2.65924902E-01  2.91412287E-01  3.16697726E-01  5.05264287E-01  5.14521913E-01
  5.89100501E-01  6.22662114E-01  6.40317378E-01  6.67960737E-01  7.55316706E-01
  7.71597280E-01  8.00482966E-01  1.14963570E+00  1.23159855E+00  1.24856918E+00
  1.60712660E+00  1.73167211E+00  1.75985620E+00  1.95527505E+00  1.98103690E+00
  1.98795549E+00  2.21080915E+00  2.41996530E+00  3.40435527E+00  3.95871850E+00
Alpha MO coefficients                      R   N=        1600
  1.80758792E-05 -1.51648784E-05  2.32992883E-04  8.07533129E-09 -7.20412804E-05
 -1.84294633E-03 -7.28016876E-04 -5.32965450E-08  3.68571673E-04  5.44571152E-04
  3.91090996E-05  6.93736902E-05 -1.66679373E-09 -3.57878069E-05 -9.88046413E-09
  1.20035659E-04  2.04645037E-04  1.20054514E-04  2.04591981E-04  5.36352209E-05
 -8.39150701E-06  9.92697611E-01  2.59451219E-02  1.19443845E-04 -1.33165513E-08
  7.83618732E-04  1.23844305E-02 -3.64982372E-04  1.47187857E-08 -4.52498026E-05
 -8.27040801E-03 -8.23613862E-03 -8.21026073E-03 -4.66947624E-10  2.30840232E-05
  1.07056121E-09  3.62833220E-04 -1.09657576E-03  3.62826816E-04 -1.09658167E-03
  9.92895184E-01  4.90587258E-02  1.08753796E-03  7.94752534E-09 -4.12689650E-05
 -1.37683665E-02 -4.61684074E-04 -5.05799575E-09  1.22789518E-04 -9.18835548E-03
 -9.11052662E-03 -9.10478101E-03  2.99020856E-09 -1.33719162E-06 -8.47158361E-09
 -1.38092244E-04  2.60764876E-03 -1.38078900E-04  2.60764871E-03 -1.59805788E-04
  2.54141223E-03 -1.06181649E-04 -1.86629471E-04  9.00810461E-05  3.06663226E-09
  8.54238234E-06  2.35739213E-03 -3.80289280E-04 -1.96772048E-08  1.19743397E-05
 -8.83502410E-04 -4.20676923E-05 -8.29863766E-05  7.68126588E-10  7.60547511E-05
 -1.78897317E-09 -1.20038814E-04  2.28336319E-04 -1.20023955E-04  2.28334587E-04
 -4.14337872E-02  7.59138460E-02  6.44606216E-02  3.21282587E-07 -2.31424766E-03
  2.39877886E-02  2.12249266E-03 -9.24103894E-07  1.62901332E-03  1.54181446E-02
 -3.69436493E-03 -4.26409309E-03  4.00905777E-08 -6.04362535E-04 -4.81291826E-08
  1.30610083E-02  3.08889416E-03  1.30604321E-02  3.08742038E-03  1.29049419E-02
  5.75009547E-04 -2.11252330E-01  4.84060515E-01  1.29263199E-02 -4.49065503E-07
  7.81343025E-02  4.37588548E-01  2.12079683E-03 -7.78955352E-08  4.17028907E-02
  1.34741085E-02  2.21675506E-02 -1.30035459E-04 -3.00192531E-07  8.44199565E-03
  5.22256554E-07  1.13212771E-01 -8.36727927E-03  1.13213287E-01 -8.36746517E-03
 -1.79440993E-01  3.61167725E-01  3.31895949E-02  2.39366483E-06 -1.26587123E-02
  3.11341271E-01 -2.06175204E-03 -7.54814014E-07  8.40976117E-03 -1.11753782E-03
  1.39601862E-03  7.29763092E-04  4.14075290E-07 -1.58140215E-03 -3.48682446E-07
  1.16484585E-01  1.87859957E-02  1.16482917E-01  1.87848555E-02  1.10338921E-01
  9.41817453E-03  2.56892837E-02 -6.45925638E-02 -3.07471413E-01  4.78056498E-06
 -6.23739667E-02 -7.80688688E-02 -1.67781298E-01  3.18203710E-06 -3.46933346E-02
  1.14026697E-02 -1.05588796E-02 -5.37795691E-03  2.65366169E-07 -1.49547031E-02
  1.62755831E-07 -8.60589861E-02 -1.44182837E-02 -8.60551828E-02 -1.44177278E-02
  2.01727691E-06 -4.02996195E-06  8.41859568E-07  9.07704772E-02  3.62394845E-07
 -5.12956476E-06  7.77557437E-07  4.04108381E-02  3.39246390E-06  1.50483317E-07
  1.72239128E-06 -1.72949695E-06  1.00088594E-02  6.85171590E-08 -3.65648269E-03
  3.11574745E-02  5.19976585E-03 -3.11532214E-02 -5.19467391E-03 -7.75679810E-06
 -4.52009562E-06  2.11961883E-07 -4.00845323E-07  1.07673355E-06  5.39888338E-01
  9.31895934E-06 -9.95324353E-07  3.36870846E-07  2.99462172E-01  4.54758294E-06
 -3.53556966E-07 -3.42528320E-07  7.76551010E-07  1.41364129E-02  2.73246496E-07
  3.04331192E-02 -2.16023057E-01 -6.00226084E-02  2.16025292E-01  6.00235421E-02
 -7.60127405E-02  1.54164766E-01 -2.60831182E-01 -2.91886090E-06  1.17212741E-01
  2.24865792E-01 -6.48265518E-02 -1.09033136E-07  3.87793707E-02 -3.32376468E-02
  9.94807311E-03  1.69394194E-02  2.43284344E-07  7.85879042E-03 -2.35396114E-06
  7.83634410E-02  2.31292775E-02  7.83520315E-02  2.31242389E-02  1.54886893E-01
  6.72768793E-02  4.69494820E-02 -1.13077207E-01  3.89005139E-01 -1.04179382E-06
  2.38870883E-01 -1.85529971E-01  2.39380017E-01 -7.85375788E-07  1.50091326E-01
 -1.38869020E-03  1.12947206E-03  1.31611077E-02 -1.68338876E-07  1.36846191E-02
 -1.66149499E-07  1.02911354E-01  4.58334906E-02  1.02911901E-01  4.58336999E-02
  1.98171431E-02 -4.37297819E-02  1.63363377E-01 -1.28822494E-05  2.86357080E-01
 -7.69492046E-02  5.27378935E-02 -3.02826659E-06  1.31284946E-01  1.78786014E-02
 -1.91381911E-02  3.26700417E-03 -4.54059729E-07  4.45629374E-03 -6.41812860E-06
 -1.19240002E-01 -5.91311995E-02 -1.19273608E-01 -5.91448798E-02  1.02802647E-01
  6.09019439E-02  1.89846754E-02 -4.87180858E-02 -2.50084250E-01 -4.78832075E-06
  4.12066730E-01 -4.68831785E-02 -1.66382186E-01 -3.60521808E-06  2.78456944E-01
 -1.08831321E-02 -1.05915647E-02  1.93849266E-02  5.11504207E-07 -1.43820745E-02
 -7.03863614E-07  1.37311539E-03 -3.27907999E-03  1.37607946E-03 -3.27934984E-03
  4.01235813E-07 -3.10922598E-07  6.95270607E-06  4.82568645E-01 -7.27544733E-06
 -4.58892821E-06  3.30527534E-06  2.35358468E-01  2.86576142E-08 -2.50023727E-07
  1.20112638E-05 -1.17396036E-05 -1.07718281E-02  2.60241834E-07 -2.40717516E-02
  2.37293846E-01  1.40201279E-01 -2.37238435E-01 -1.40164761E-01 -5.52854625E-05
 -3.44694009E-05  2.93471246E-06 -6.95421506E-06 -4.07344608E-06 -1.22336886E-01
  2.87783641E-05 -1.25988625E-05 -4.18950379E-06 -6.76417477E-02  1.98352283E-05
 -3.19582984E-07  6.11728553E-07  4.94342723E-07 -1.91309575E-02 -3.30389080E-08
 -8.13823866E-03  7.04030117E-02  4.40656910E-02 -7.03954888E-02 -4.40589692E-02
 -1.08430043E-03  4.43056995E-03  2.83809876E-02 -2.13418840E-05 -3.80032852E-01
 -1.27442438E-02  6.30470692E-04 -1.22467208E-05 -1.70004564E-01  5.10703319E-03
  1.65117153E-02 -2.03731718E-02  7.91467911E-07  1.75160504E-02  1.17131780E-05
  1.12113771E-01  7.19356869E-02  1.12204625E-01  7.19951015E-02 -2.40744771E-01
 -1.65842427E-01  3.10081264E-02 -7.32387682E-02 -8.35187953E-02 -2.36237369E-06
  4.29543386E-01 -1.24294738E-01 -6.53024192E-02 -3.35429700E-06  3.09489777E-01
 -5.11969096E-03 -4.02757117E-03  1.83934446E-02  9.71626453E-07  9.21195193E-03
  7.16901031E-07  4.82132739E-02  3.01289093E-02  4.82204664E-02  3.01366831E-02
  1.64381879E-02 -3.38839223E-02 -3.05159878E-01  1.12595517E-05  1.27807317E-02
 -4.60872583E-03 -4.61863607E-01  2.91994645E-05  1.31591488E-03  1.33383475E-02
 -9.70195847E-03 -4.84435449E-03 -1.82440111E-07  1.80115108E-03 -2.03652930E-08
  2.46490890E-03 -9.69464825E-02  2.47079869E-03 -9.69044030E-02  4.92766077E-03
 -9.44380789E-02 -1.20652763E-01  2.22977663E-01 -9.66633259E-03 -3.24259307E-06
  1.67435084E-01  1.23963203E+00 -1.03723121E-02 -5.58096203E-06  2.26857344E-01
 -3.86609380E-02 -3.34660607E-02 -2.52917515E-02 -4.32976535E-07  4.80556457E-04
 -5.69299529E-08 -1.39412128E-01 -7.03439968E-01 -1.39412222E-01 -7.03441400E-01
  5.93853886E-06 -1.22325566E-05 -1.99851439E-05 -7.41488143E-02  2.43150190E-05
 -6.59527278E-05 -2.88067086E-05 -1.05475977E-01  9.59820195E-05  7.75319599E-07
  1.51806076E-06 -2.06931402E-06 -1.35290256E-02 -3.00334587E-07  4.02236453E-03
  1.95845774E-02  1.72250329E-01 -1.95707193E-02 -1.72069968E-01 -1.34405485E-05
 -1.21410667E-04 -1.83437102E-06  3.82722400E-06 -1.52300996E-05 -4.25614020E-01
 -1.16866867E-05  1.34670802E-05 -2.98856259E-05 -6.78297873E-01 -2.66579951E-05
 -2.24557792E-06  1.74154196E-06 -1.16491883E-06  1.65433580E-02 -1.18416705E-06
 -2.94459949E-03 -1.79843299E-01 -1.13544291E+00  1.79847767E-01  1.13547880E+00
 -1.10560495E-01  2.08570984E-01  4.30781154E-01 -1.78713603E-06  1.14682624E-02
  1.21880778E+00  7.25909976E-01  1.66093060E-05 -2.62974062E-03 -2.93525011E-02
  8.39609053E-03  7.24845828E-03 -4.97405586E-07  7.45034068E-03  8.63623607E-07
  1.15859860E-02 -2.70404734E-01  1.15891528E-02 -2.70346903E-01 -8.67910404E-03
 -3.76694910E-01  1.96465645E-02 -3.48309021E-02  4.42101544E-01 -1.76426762E-05
  5.79677310E-02 -1.21247311E-01  7.19814267E-01 -3.12870807E-05  9.42698003E-02
  3.79475819E-02 -1.43219309E-02 -1.59355797E-03  5.48978828E-07  8.14568983E-03
  6.47392059E-08 -7.17968013E-02 -5.33256793E-01 -7.17822408E-02 -5.33159506E-01
 -1.26360631E-01  2.33584564E-01 -1.99114774E-01 -1.08482991E-06  9.40967634E-03
  1.95537806E+00 -5.92847416E-01 -4.39271384E-06 -9.14277860E-04  7.96598810E-03
 -9.67694600E-03 -1.19945450E-02 -2.35483494E-07 -3.99035858E-03  8.70747788E-08
 -7.13809986E-02 -1.07055085E+00 -7.13845056E-02 -1.07056898E+00 -6.27423792E-02
 -1.05678808E+00  2.20136914E-02 -2.73830329E-02 -1.11732577E-01 -1.46753399E-06
 -6.61977047E-02 -2.86125714E-01 -1.18803938E-01 -3.58629222E-06 -7.89880421E-02
  2.37806477E-02  9.08778961E-03  9.86067996E-05  5.60832072E-07 -1.26898688E-03
  4.33023069E-07  6.43021003E-02  3.16713855E-01  6.43061412E-02  3.16736039E-01
  3.02744109E-06 -1.04690273E-05 -6.95864673E-06  4.10607125E-01  2.03139306E-04
 -2.41368253E-05  7.10749306E-06  1.33649501E+00  6.22218562E-04  1.28079691E-06
 -2.99127991E-06  9.72374035E-07  1.62501877E-02  6.53051351E-06  2.99809153E-02
 -1.40599950E-01 -1.49913168E+00  1.40635432E-01  1.49964584E+00 -4.58054202E-05
 -5.01153077E-04  1.43165565E-07 -2.92770771E-06 -1.65108571E-05 -8.87433955E-02
 -3.35580726E-05 -1.19017547E-05 -3.52160606E-05 -2.15237661E-01 -7.80957438E-05
 -3.17040482E-06 -9.75086974E-07  2.80586322E-07 -2.21067140E-02 -9.16539784E-06
  1.09614467E-02 -3.15113372E-03 -1.62719459E-01  3.14909637E-03  1.62811210E-01
 -5.65631538E-03  1.81827042E-02  1.96106027E-02  1.88717965E-04 -4.45834785E-01
  6.77974834E-02  1.65639385E-02  6.31575077E-04 -1.33536575E+00  1.75784002E-04
 -2.12846190E-02  2.43262070E-02  5.41738501E-06 -1.24436261E-02 -8.58266073E-08
 -6.38384328E-02 -8.97995029E-01 -6.37585900E-02 -8.97128694E-01  1.43615648E-01
  1.74403449E+00  5.70858312E-03 -1.03784680E-02  9.25449546E-03 -7.87769698E-05
  5.01307577E-02 -5.61376896E-02  6.76996150E-02 -1.52772014E-04  1.54999641E-01
  6.77486192E-03 -1.20161602E-02  1.26881803E-02 -8.15137111E-06  2.16703202E-02
 -1.68689109E-06  7.10815179E-04 -1.51993764E-02  7.37347447E-04 -1.48393941E-02
  3.95435952E-03 -2.81719301E-01 -9.06104328E-01  1.56639441E-05  6.45359109E-02
  6.91959987E-01  1.57507604E+00 -1.64732072E-05 -1.56493786E-01 -1.48519251E-02
 -1.03286098E-03  1.27105068E-02 -3.85242834E-07 -2.28451789E-03 -4.58854190E-06
  1.16462969E-01 -6.58288728E-02  1.16447056E-01 -6.58281903E-02  1.56173890E-01
 -1.32441379E-02  1.91402273E-03  1.61410104E-01 -1.29914652E-01 -2.79199436E-06
  6.61099334E-02 -8.36502193E-01  3.88335465E-01  7.54981895E-07 -3.47498630E-02
 -1.07864977E-01  9.80526084E-02  9.97097688E-02  9.06072266E-07  5.96971955E-03
  1.72989263E-07  5.56010482E-03 -1.73892496E-01  5.57377108E-03 -1.73904188E-01
 -3.29934240E-07 -5.80240066E-06 -2.22788658E-05 -7.06507855E-01 -4.31008761E-05
  2.12885165E-05  5.52501039E-05  1.43762473E+00  8.49953603E-05  1.60644750E-06
 -3.94674468E-05  3.84911472E-05  6.05294313E-02  4.87215156E-06  9.22077198E-02
 -3.76403318E-01 -2.37125596E-01  3.76361412E-01  2.37084977E-01  4.62565885E-05
  4.10756151E-05  8.06170954E-08  6.83939299E-07 -6.56186916E-06  5.98783902E-02
 -1.01539988E-05 -1.84891394E-05  1.80927426E-05 -4.55483362E-02 -1.30827961E-06
 -2.59966037E-06 -4.94478143E-06  6.62752085E-06 -7.22870941E-02 -7.05329207E-07
 -2.56389027E-02  2.84717230E-01 -1.02409501E-01 -2.84722786E-01  1.02400315E-01
 -6.42489454E-04 -3.45531573E-02 -1.09055608E-01  3.47040098E-05 -7.21148911E-01
  4.63288059E-02  1.33036076E-01 -1.02977747E-04  1.65574774E+00 -1.06396166E-02
  9.09227012E-02 -9.47647236E-02 -2.45234747E-06  3.55090652E-02  4.99714016E-05
  2.14642335E-01  2.23125073E-01  2.14719570E-01  2.23200513E-01 -4.45413278E-01
 -4.52261897E-01 -1.09073432E-02  1.24912519E-01  8.38983022E-02  2.24467711E-05
 -2.08637800E-01 -1.25522812E-01 -5.80377131E-02 -1.14717441E-05 -4.95178279E-02
  2.60725853E-02  3.35017921E-02  3.07461787E-02  5.65788327E-06 -2.77594326E-02
  9.34696988E-06 -1.04573246E-01  2.40740725E-02 -1.04537792E-01  2.40265464E-02
  5.69562463E-03 -8.02756922E-03  3.75785000E-02  1.83857435E-04 -1.57826461E-01
 -2.35325695E-01 -5.01770291E-02 -4.30293818E-04  3.28683637E-01 -7.60654920E-02
  1.63799552E-02  2.57042681E-02  3.87699989E-05 -4.89128443E-02 -1.04650640E-05
  5.03324822E-02  1.63825476E-01  5.04184293E-02  1.63392939E-01  2.06710522E-01
 -2.95163745E-01  2.81867930E-02 -2.87438730E-01 -1.09268247E-02  4.19792832E-05