 Entering Gaussian System, Link 0=g16
 Input=methanol.com
 Output=methanol.log
 Initial command:
 /apps/cent7/gaussian/g16-A.03/g16-haswell/g16/l1.exe "/scratch/brown/finej/0062_qm/train_original_basis_set/Gau-455095.inp" -scrdir="/scratch/brown/finej/0062_qm/train_original_basis_set/"
 Entering Link 1 = /apps/cent7/gaussian/g16-A.03/g16-haswell/g16/l1.exe PID=    455098.
  
 Copyright (c) 1988,1990,1992,1993,1995,1998,2003,2009,2016,
            Gaussian, Inc.  All Rights Reserved.
  
 This is part of the Gaussian(R) 16 program.  It is based on
 the Gaussian(R) 09 system (copyright 2009, Gaussian, Inc.),
 the Gaussian(R) 03 system (copyright 2003, Gaussian, Inc.),
 the Gaussian(R) 98 system (copyright 1998, Gaussian, Inc.),
 the Gaussian(R) 94 system (copyright 1995, Gaussian, Inc.),
 the Gaussian 92(TM) system (copyright 1992, Gaussian, Inc.),
 the Gaussian 90(TM) system (copyright 1990, Gaussian, Inc.),
 the Gaussian 88(TM) system (copyright 1988, Gaussian, Inc.),
 the Gaussian 86(TM) system (copyright 1986, Carnegie Mellon
 University), and the Gaussian 82(TM) system (copyright 1983,
 Carnegie Mellon University). Gaussian is a federally registered
 trademark of Gaussian, Inc.
  
 This software contains proprietary and confidential information,
 including trade secrets, belonging to Gaussian, Inc.
  
 This software is provided under written license and may be
 used, copied, transmitted, or stored only in accord with that
 written license.
  
 The following legend is applicable only to US Government
 contracts under FAR:
  
                    RESTRICTED RIGHTS LEGEND
  
 Use, reproduction and disclosure by the US Government is
 subject to restrictions as set forth in subparagraphs (a)
 and (c) of the Commercial Computer Software - Restricted
 Rights clause in FAR 52.227-19.
  
 Gaussian, Inc.
 340 Quinnipiac St., Bldg. 40, Wallingford CT 06492
  
  
 ---------------------------------------------------------------
 Warning -- This program may not be used in any manner that
 competes with the business of Gaussian, Inc. or will provide
 assistance to any competitor of Gaussian, Inc.  The licensee
 of this program is prohibited from giving any competitor of
 Gaussian, Inc. access to this program.  By using this program,
 the user acknowledges that Gaussian, Inc. is engaged in the
 business of creating and licensing software in the field of
 computational chemistry and represents and warrants to the
 licensee that it is not a competitor of Gaussian, Inc. and that
 it will not use this program in any manner prohibited above.
 ---------------------------------------------------------------
  

 Cite this work as:
 Gaussian 16, Revision A.03,
 M. J. Frisch, G. W. Trucks, H. B. Schlegel, G. E. Scuseria, 
 M. A. Robb, J. R. Cheeseman, G. Scalmani, V. Barone, 
 G. A. Petersson, H. Nakatsuji, X. Li, M. Caricato, A. V. Marenich, 
 J. Bloino, B. G. Janesko, R. Gomperts, B. Mennucci, H. P. Hratchian, 
 J. V. Ortiz, A. F. Izmaylov, J. L. Sonnenberg, D. Williams-Young, 
 F. Ding, F. Lipparini, F. Egidi, J. Goings, B. Peng, A. Petrone, 
 T. Henderson, D. Ranasinghe, V. G. Zakrzewski, J. Gao, N. Rega, 
 G. Zheng, W. Liang, M. Hada, M. Ehara, K. Toyota, R. Fukuda, 
 J. Hasegawa, M. Ishida, T. Nakajima, Y. Honda, O. Kitao, H. Nakai, 
 T. Vreven, K. Throssell, J. A. Montgomery, Jr., J. E. Peralta, 
 F. Ogliaro, M. J. Bearpark, J. J. Heyd, E. N. Brothers, K. N. Kudin, 
 V. N. Staroverov, T. A. Keith, R. Kobayashi, J. Normand, 
 K. Raghavachari, A. P. Rendell, J. C. Burant, S. S. Iyengar, 
 J. Tomasi, M. Cossi, J. M. Millam, M. Klene, C. Adamo, R. Cammi, 
 J. W. Ochterski, R. L. Martin, K. Morokuma, O. Farkas, 
 J. B. Foresman, and D. J. Fox, Gaussian, Inc., Wallingford CT, 2016.
 
 ******************************************
 Gaussian 16:  ES64L-G16RevA.03 25-Dec-2016
                13-Oct-2019 
 ******************************************
 %chk=methanol.chk
 %nprocshared=24
 Will use up to   24 processors via shared memory.
 %mem=10GB
 --------------------------------------------------------------
 #P opt freq b3lyp/6-31g(d) geom=connectivity temperature=0.001
 --------------------------------------------------------------
 1/18=20,19=15,26=3,38=1,57=2,112=-1000/1,3;
 2/9=110,12=2,17=6,18=5,40=1/2;
 3/5=1,6=6,7=1,11=2,25=1,30=1,71=1,74=-5/1,2,3;
 4//1;
 5/5=2,38=5/2;
 6/7=2,8=2,9=2,10=2,28=1/1;
 7//1,2,3,16;
 1/18=20,19=15,26=3/3(2);
 2/9=110/2;
 99//99;
 2/9=110/2;
 3/5=1,6=6,7=1,11=2,25=1,30=1,71=1,74=-5/1,2,3;
 4/5=5,16=3,69=1/1;
 5/5=2,38=5/2;
 7//1,2,3,16;
 1/18=20,19=15,26=3/3(-5);
 2/9=110/2;
 6/7=2,8=2,9=2,10=2,19=2,28=1/1;
 99/9=1/99;
 Leave Link    1 at Sun Oct 13 20:13:52 2019, MaxMem=  1342177280 cpu:               1.8 elap:               0.3
 (Enter /apps/cent7/gaussian/g16-A.03/g16-haswell/g16/l101.exe)
 -------------------
 Title Card Required
 -------------------
 Symbolic Z-matrix:
 Charge =  0 Multiplicity = 1
 C                    -0.12989   0.07215   0.77283 
 H                     0.22672  -0.93668   0.77291 
 H                     0.22678   0.57659   1.64646 
 H                    -1.19989   0.0722    0.77281 
 O                     0.34684   0.74615  -0.39479 
 H                     0.02689   1.65127  -0.39486 
 
 ITRead=  0  0  0  0  0  0
 MicOpt= -1 -1 -1 -1 -1 -1
 NAtoms=      6 NQM=        6 NQMF=       0 NMMI=      0 NMMIF=      0
                NMic=       0 NMicF=      0.
                    Isotopes and Nuclear Properties:
 (Nuclear quadrupole moments (NQMom) in fm**2, nuclear magnetic moments (NMagM)
  in nuclear magnetons)

  Atom         1           2           3           4           5           6
 IAtWgt=          12           1           1           1          16           1
 AtmWgt=  12.0000000   1.0078250   1.0078250   1.0078250  15.9949146   1.0078250
 NucSpn=           0           1           1           1           0           1
 AtZEff=  -0.0000000  -0.0000000  -0.0000000  -0.0000000  -0.0000000  -0.0000000
 NQMom=    0.0000000   0.0000000   0.0000000   0.0000000   0.0000000   0.0000000
 NMagM=    0.0000000   2.7928460   2.7928460   2.7928460   0.0000000   2.7928460
 AtZNuc=   6.0000000   1.0000000   1.0000000   1.0000000   8.0000000   1.0000000
 Leave Link  101 at Sun Oct 13 20:13:57 2019, MaxMem=  1342177280 cpu:              21.4 elap:               4.5
 (Enter /apps/cent7/gaussian/g16-A.03/g16-haswell/g16/l103.exe)

 GradGradGradGradGradGradGradGradGradGradGradGradGradGradGradGradGradGrad
 Berny optimization.
 Initialization pass.
                           ----------------------------
                           !    Initial Parameters    !
                           ! (Angstroms and Degrees)  !
 --------------------------                            --------------------------
 ! Name  Definition              Value          Derivative Info.                !
 --------------------------------------------------------------------------------
 ! R1    R(1,2)                  1.07           estimate D2E/DX2                !
 ! R2    R(1,3)                  1.07           estimate D2E/DX2                !
 ! R3    R(1,4)                  1.07           estimate D2E/DX2                !
 ! R4    R(1,5)                  1.43           estimate D2E/DX2                !
 ! R5    R(5,6)                  0.96           estimate D2E/DX2                !
 ! A1    A(2,1,3)              109.4712         estimate D2E/DX2                !
 ! A2    A(2,1,4)              109.4712         estimate D2E/DX2                !
 ! A3    A(2,1,5)              109.4712         estimate D2E/DX2                !
 ! A4    A(3,1,4)              109.4712         estimate D2E/DX2                !
 ! A5    A(3,1,5)              109.4712         estimate D2E/DX2                !
 ! A6    A(4,1,5)              109.4712         estimate D2E/DX2                !
 ! A7    A(1,5,6)              109.4712         estimate D2E/DX2                !
 ! D1    D(2,1,5,6)            180.0            estimate D2E/DX2                !
 ! D2    D(3,1,5,6)            -60.0            estimate D2E/DX2                !
 ! D3    D(4,1,5,6)             60.0            estimate D2E/DX2                !
 --------------------------------------------------------------------------------
 Trust Radius=3.00D-01 FncErr=1.00D-07 GrdErr=1.00D-06 EigMax=2.50D+02 EigMin=1.00D-04
 Number of steps in this run=     25 maximum allowed number of steps=    100.
 GradGradGradGradGradGradGradGradGradGradGradGradGradGradGradGradGradGrad

 Leave Link  103 at Sun Oct 13 20:13:57 2019, MaxMem=  1342177280 cpu:               0.8 elap:               0.1
 (Enter /apps/cent7/gaussian/g16-A.03/g16-haswell/g16/l202.exe)
                          Input orientation:                          
 ---------------------------------------------------------------------
 Center     Atomic      Atomic             Coordinates (Angstroms)
 Number     Number       Type             X           Y           Z
 ---------------------------------------------------------------------
      1          6           0       -0.129891    0.072146    0.772833
      2          1           0        0.226722   -0.936678    0.772909
      3          1           0        0.226782    0.576588    1.646459
      4          1           0       -1.199891    0.072203    0.772808
      5          8           0        0.346839    0.746151   -0.394791
      6          1           0        0.026887    1.651265   -0.394859
 ---------------------------------------------------------------------
                    Distance matrix (angstroms):
                    1          2          3          4          5
     1  C    0.000000
     2  H    1.070000   0.000000
     3  H    1.070000   1.747303   0.000000
     4  H    1.070000   1.747303   1.747303   0.000000
     5  O    1.430000   2.051796   2.051796   2.051796   0.000000
     6  H    1.970203   2.846237   2.315570   2.315570   0.960000
                    6
     6  H    0.000000
 Stoichiometry    CH4O
 Framework group  CS[SG(CH2O),X(H2)]
 Deg. of freedom     8
 Full point group                 CS      NOp   2
 Largest Abelian subgroup         CS      NOp   2
 Largest concise Abelian subgroup CS      NOp   2
                         Standard orientation:                         
 ---------------------------------------------------------------------
 Center     Atomic      Atomic             Coordinates (Angstroms)
 Number     Number       Type             X           Y           Z
 ---------------------------------------------------------------------
      1          6           0       -0.050283    0.673333    0.000000
      2          1           0       -1.059089    1.030000    0.000000
      3          1           0        0.454120    1.030000    0.873651
      4          1           0        0.454120    1.030000   -0.873651
      5          8           0       -0.050283   -0.756667   -0.000000
      6          1           0        0.854814   -1.076667   -0.000000
 ---------------------------------------------------------------------
 Rotational constants (GHZ):         132.1289217          24.7246673          23.8518956
 Leave Link  202 at Sun Oct 13 20:13:58 2019, MaxMem=  1342177280 cpu:               2.1 elap:               0.5
 (Enter /apps/cent7/gaussian/g16-A.03/g16-haswell/g16/l301.exe)
 Standard basis: 6-31G(d) (6D, 7F)
 Ernie: Thresh=  0.10000D-02 Tol=  0.10000D-05 Strict=F.
 There are    28 symmetry adapted cartesian basis functions of A'  symmetry.
 There are    10 symmetry adapted cartesian basis functions of A"  symmetry.
 There are    28 symmetry adapted basis functions of A'  symmetry.
 There are    10 symmetry adapted basis functions of A"  symmetry.
    38 basis functions,    72 primitive gaussians,    38 cartesian basis functions
     9 alpha electrons        9 beta electrons
       nuclear repulsion energy        40.4273550289 Hartrees.
 IExCor=  402 DFT=T Ex+Corr=B3LYP ExCW=0 ScaHFX=  0.200000
 ScaDFX=  0.800000  0.720000  1.000000  0.810000 ScalE2=  1.000000  1.000000
 IRadAn=      5 IRanWt=     -1 IRanGd=            0 ICorTp=0 IEmpDi=  4
 NAtoms=    6 NActive=    6 NUniq=    5 SFac= 1.44D+00 NAtFMM=   60 NAOKFM=F Big=F
 Integral buffers will be    131072 words long.
 Raffenetti 2 integral format.
 Two-electron integral symmetry is turned on.
 Leave Link  301 at Sun Oct 13 20:13:58 2019, MaxMem=  1342177280 cpu:               2.1 elap:               0.4
 (Enter /apps/cent7/gaussian/g16-A.03/g16-haswell/g16/l302.exe)
 NPDir=0 NMtPBC=     1 NCelOv=     1 NCel=       1 NClECP=     1 NCelD=      1
         NCelK=      1 NCelE2=     1 NClLst=     1 CellRange=     0.0.
 One-electron integrals computed using PRISM.
 One-electron integral symmetry used in STVInt
 NBasis=    38 RedAO= T EigKep=  9.49D-03  NBF=    28    10
 NBsUse=    38 1.00D-06 EigRej= -1.00D+00 NBFU=    28    10
 Precomputing XC quadrature grid using
 IXCGrd= 4 IRadAn=           5 IRanWt=          -1 IRanGd=           0 AccXCQ= 0.00D+00.
 Generated NRdTot=       0 NPtTot=           0 NUsed=           0 NTot=          32
 NSgBfM=    38    38    38    38    38 MxSgAt=     6 MxSgA2=     6.
 Leave Link  302 at Sun Oct 13 20:14:01 2019, MaxMem=  1342177280 cpu:              13.9 elap:               2.9
 (Enter /apps/cent7/gaussian/g16-A.03/g16-haswell/g16/l303.exe)
 DipDrv:  MaxL=1.
 Leave Link  303 at Sun Oct 13 20:14:02 2019, MaxMem=  1342177280 cpu:               3.9 elap:               0.8
 (Enter /apps/cent7/gaussian/g16-A.03/g16-haswell/g16/l401.exe)
 ExpMin= 1.61D-01 ExpMax= 5.48D+03 ExpMxC= 8.25D+02 IAcc=3 IRadAn=         5 AccDes= 0.00D+00
 Harris functional with IExCor=  402 and IRadAn=       5 diagonalized for initial guess.
 HarFok:  IExCor=  402 AccDes= 0.00D+00 IRadAn=         5 IDoV= 1 UseB2=F ITyADJ=14
 ICtDFT=  3500011 ScaDFX=  1.000000  1.000000  1.000000  1.000000
 FoFCou: FMM=F IPFlag=           0 FMFlag=      100000 FMFlg1=           0
         NFxFlg=           0 DoJE=T BraDBF=F KetDBF=T FulRan=T
         wScrn=  0.000000 ICntrl=       500 IOpCl=  0 I1Cent=   200000004 NGrid=           0
         NMat0=    1 NMatS0=      1 NMatT0=    0 NMatD0=    1 NMtDS0=    0 NMtDT0=    0
 Petite list used in FoFCou.
 Harris En= -115.748371712502    
 JPrj=0 DoOrth=F DoCkMO=F.
 Initial guess orbital symmetries:
       Occupied  (A') (A') (A') (A') (A') (A") (A') (A') (A")
       Virtual   (A') (A') (A') (A") (A') (A') (A") (A') (A') (A")
                 (A') (A') (A") (A') (A') (A') (A') (A") (A') (A")
                 (A') (A') (A") (A') (A") (A') (A') (A') (A')
 The electronic state of the initial guess is 1-A'.
 Leave Link  401 at Sun Oct 13 20:14:06 2019, MaxMem=  1342177280 cpu:              17.9 elap:               3.8
 (Enter /apps/cent7/gaussian/g16-A.03/g16-haswell/g16/l502.exe)
 Keep R1 ints in memory in symmetry-blocked form, NReq=20986235.
 FoFCou: FMM=F IPFlag=           0 FMFlag=           0 FMFlg1=           0
         NFxFlg=           0 DoJE=F BraDBF=F KetDBF=F FulRan=T
         wScrn=  0.000000 ICntrl=       600 IOpCl=  0 I1Cent=           0 NGrid=           0
         NMat0=    1 NMatS0=    741 NMatT0=    0 NMatD0=    1 NMtDS0=    0 NMtDT0=    0
 Petite list used in FoFCou.
 Closed shell SCF:
 Using DIIS extrapolation, IDIIS=  1040.
 NGot=  1342177280 LenX=  1342024961 LenY=  1342023076
 Requested convergence on RMS density matrix=1.00D-08 within 128 cycles.
 Requested convergence on MAX density matrix=1.00D-06.
 Requested convergence on             energy=1.00D-06.
 No special actions if energy rises.
 Integral accuracy reduced to 1.0D-05 until final iterations.

 Cycle   1  Pass 0  IDiag  1:
 E= -115.628672801572    
 DIIS: error= 4.83D-02 at cycle   1 NSaved=   1.
 NSaved= 1 IEnMin= 1 EnMin= -115.628672801572     IErMin= 1 ErrMin= 4.83D-02
 ErrMax= 4.83D-02  0.00D+00 EMaxC= 1.00D-01 BMatC= 9.19D-02 BMatP= 9.19D-02
 IDIUse=3 WtCom= 5.17D-01 WtEn= 4.83D-01
 Coeff-Com:  0.100D+01
 Coeff-En:   0.100D+01
 Coeff:      0.100D+01
 Gap=     0.286 Goal=   None    Shift=    0.000
 GapD=    0.286 DampG=1.000 DampE=0.500 DampFc=0.5000 IDamp=-1.
 Damping current iteration by 5.00D-01
 RMSDP=1.59D-02 MaxDP=1.43D-01              OVMax= 1.45D-01

 Cycle   2  Pass 0  IDiag  1:
 E= -115.663483678275     Delta-E=       -0.034810876703 Rises=F Damp=T
 DIIS: error= 8.67D-03 at cycle   2 NSaved=   2.
 NSaved= 2 IEnMin= 2 EnMin= -115.663483678275     IErMin= 2 ErrMin= 8.67D-03
 ErrMax= 8.67D-03  0.00D+00 EMaxC= 1.00D-01 BMatC= 5.20D-03 BMatP= 9.19D-02
 IDIUse=3 WtCom= 9.13D-01 WtEn= 8.67D-02
 Coeff-Com:  0.121D+00 0.879D+00
 Coeff-En:   0.171D+00 0.829D+00
 Coeff:      0.126D+00 0.874D+00
 Gap=     0.341 Goal=   None    Shift=    0.000
 RMSDP=2.38D-03 MaxDP=1.79D-02 DE=-3.48D-02 OVMax= 8.64D-02

 Cycle   3  Pass 0  IDiag  1:
 E= -115.710436047983     Delta-E=       -0.046952369708 Rises=F Damp=F
 DIIS: error= 5.06D-03 at cycle   3 NSaved=   3.
 NSaved= 3 IEnMin= 3 EnMin= -115.710436047983     IErMin= 3 ErrMin= 5.06D-03
 ErrMax= 5.06D-03  0.00D+00 EMaxC= 1.00D-01 BMatC= 1.51D-03 BMatP= 5.20D-03
 IDIUse=3 WtCom= 9.49D-01 WtEn= 5.06D-02
 Coeff-Com:  0.257D-01 0.333D+00 0.641D+00
 Coeff-En:   0.000D+00 0.000D+00 0.100D+01
 Coeff:      0.244D-01 0.316D+00 0.659D+00
 Gap=     0.336 Goal=   None    Shift=    0.000
 RMSDP=1.04D-03 MaxDP=1.16D-02 DE=-4.70D-02 OVMax= 1.33D-02

 Cycle   4  Pass 0  IDiag  1:
 E= -115.711375984960     Delta-E=       -0.000939936977 Rises=F Damp=F
 DIIS: error= 2.91D-03 at cycle   4 NSaved=   4.
 NSaved= 4 IEnMin= 4 EnMin= -115.711375984960     IErMin= 4 ErrMin= 2.91D-03
 ErrMax= 2.91D-03  0.00D+00 EMaxC= 1.00D-01 BMatC= 3.95D-04 BMatP= 1.51D-03
 IDIUse=3 WtCom= 9.71D-01 WtEn= 2.91D-02
 Coeff-Com:  0.408D-02 0.583D-01 0.346D+00 0.592D+00
 Coeff-En:   0.000D+00 0.000D+00 0.197D+00 0.803D+00
 Coeff:      0.396D-02 0.566D-01 0.341D+00 0.598D+00
 Gap=     0.337 Goal=   None    Shift=    0.000
 RMSDP=3.78D-04 MaxDP=3.99D-03 DE=-9.40D-04 OVMax= 4.90D-03

 Cycle   5  Pass 0  IDiag  1:
 E= -115.711695319311     Delta-E=       -0.000319334351 Rises=F Damp=F
 DIIS: error= 2.70D-04 at cycle   5 NSaved=   5.
 NSaved= 5 IEnMin= 5 EnMin= -115.711695319311     IErMin= 5 ErrMin= 2.70D-04
 ErrMax= 2.70D-04  0.00D+00 EMaxC= 1.00D-01 BMatC= 4.14D-06 BMatP= 3.95D-04
 IDIUse=3 WtCom= 9.97D-01 WtEn= 2.70D-03
 Coeff-Com:  0.733D-03-0.205D-02 0.613D-01 0.165D+00 0.775D+00
 Coeff-En:   0.000D+00 0.000D+00 0.000D+00 0.000D+00 0.100D+01
 Coeff:      0.731D-03-0.204D-02 0.611D-01 0.165D+00 0.775D+00
 Gap=     0.338 Goal=   None    Shift=    0.000
 RMSDP=3.76D-05 MaxDP=3.08D-04 DE=-3.19D-04 OVMax= 4.48D-04

 Cycle   6  Pass 0  IDiag  1:
 E= -115.711698713463     Delta-E=       -0.000003394152 Rises=F Damp=F
 DIIS: error= 1.46D-05 at cycle   6 NSaved=   6.
 NSaved= 6 IEnMin= 6 EnMin= -115.711698713463     IErMin= 6 ErrMin= 1.46D-05
 ErrMax= 1.46D-05  0.00D+00 EMaxC= 1.00D-01 BMatC= 7.35D-09 BMatP= 4.14D-06
 IDIUse=1 WtCom= 1.00D+00 WtEn= 0.00D+00
 Coeff-Com:  0.161D-03-0.661D-03 0.325D-02 0.899D-02 0.612D-01 0.927D+00
 Coeff:      0.161D-03-0.661D-03 0.325D-02 0.899D-02 0.612D-01 0.927D+00
 Gap=     0.338 Goal=   None    Shift=    0.000
 RMSDP=3.61D-06 MaxDP=2.93D-05 DE=-3.39D-06 OVMax= 3.92D-05

 Initial convergence to 1.0D-05 achieved.  Increase integral accuracy.
 Cycle   7  Pass 1  IDiag  1:
 E= -115.711698833562     Delta-E=       -0.000000120099 Rises=F Damp=F
 DIIS: error= 1.65D-06 at cycle   1 NSaved=   1.
 NSaved= 1 IEnMin= 1 EnMin= -115.711698833562     IErMin= 1 ErrMin= 1.65D-06
 ErrMax= 1.65D-06  0.00D+00 EMaxC= 1.00D-01 BMatC= 1.71D-10 BMatP= 1.71D-10
 IDIUse=1 WtCom= 1.00D+00 WtEn= 0.00D+00
 Coeff-Com:  0.100D+01
 Coeff:      0.100D+01
 Gap=     0.338 Goal=   None    Shift=    0.000
 RMSDP=3.61D-06 MaxDP=2.93D-05 DE=-1.20D-07 OVMax= 7.39D-06

 Cycle   8  Pass 1  IDiag  1:
 E= -115.711698833697     Delta-E=       -0.000000000136 Rises=F Damp=F
 DIIS: error= 1.31D-06 at cycle   2 NSaved=   2.
 NSaved= 2 IEnMin= 2 EnMin= -115.711698833697     IErMin= 2 ErrMin= 1.31D-06
 ErrMax= 1.31D-06  0.00D+00 EMaxC= 1.00D-01 BMatC= 8.24D-11 BMatP= 1.71D-10
 IDIUse=1 WtCom= 1.00D+00 WtEn= 0.00D+00
 Coeff-Com:  0.390D+00 0.610D+00
 Coeff:      0.390D+00 0.610D+00
 Gap=     0.338 Goal=   None    Shift=    0.000
 RMSDP=2.66D-07 MaxDP=2.71D-06 DE=-1.36D-10 OVMax= 2.98D-06

 Cycle   9  Pass 1  IDiag  1:
 E= -115.711698833751     Delta-E=       -0.000000000054 Rises=F Damp=F
 DIIS: error= 5.84D-07 at cycle   3 NSaved=   3.
 NSaved= 3 IEnMin= 3 EnMin= -115.711698833751     IErMin= 3 ErrMin= 5.84D-07
 ErrMax= 5.84D-07  0.00D+00 EMaxC= 1.00D-01 BMatC= 2.13D-11 BMatP= 8.24D-11
 IDIUse=1 WtCom= 1.00D+00 WtEn= 0.00D+00
 Coeff-Com:  0.119D+00 0.346D+00 0.535D+00
 Coeff:      0.119D+00 0.346D+00 0.535D+00
 Gap=     0.338 Goal=   None    Shift=    0.000
 RMSDP=7.91D-08 MaxDP=1.00D-06 DE=-5.37D-11 OVMax= 9.77D-07

 Cycle  10  Pass 1  IDiag  1:
 E= -115.711698833766     Delta-E=       -0.000000000015 Rises=F Damp=F
 DIIS: error= 5.82D-08 at cycle   4 NSaved=   4.
 NSaved= 4 IEnMin= 4 EnMin= -115.711698833766     IErMin= 4 ErrMin= 5.82D-08
 ErrMax= 5.82D-08  0.00D+00 EMaxC= 1.00D-01 BMatC= 1.65D-13 BMatP= 2.13D-11
 IDIUse=1 WtCom= 1.00D+00 WtEn= 0.00D+00
 Coeff-Com:  0.548D-02 0.403D-01 0.111D+00 0.843D+00
 Coeff:      0.548D-02 0.403D-01 0.111D+00 0.843D+00
 Gap=     0.338 Goal=   None    Shift=    0.000
 RMSDP=1.42D-08 MaxDP=1.23D-07 DE=-1.53D-11 OVMax= 1.42D-07

 Cycle  11  Pass 1  IDiag  1:
 E= -115.711698833766     Delta-E=       -0.000000000000 Rises=F Damp=F
 DIIS: error= 4.42D-08 at cycle   5 NSaved=   5.
 NSaved= 5 IEnMin= 5 EnMin= -115.711698833766     IErMin= 5 ErrMin= 4.42D-08
 ErrMax= 4.42D-08  0.00D+00 EMaxC= 1.00D-01 BMatC= 4.99D-14 BMatP= 1.65D-13
 IDIUse=1 WtCom= 1.00D+00 WtEn= 0.00D+00
 Coeff-Com: -0.538D-02-0.361D-02 0.189D-01 0.424D+00 0.566D+00
 Coeff:     -0.538D-02-0.361D-02 0.189D-01 0.424D+00 0.566D+00
 Gap=     0.338 Goal=   None    Shift=    0.000
 RMSDP=4.93D-09 MaxDP=6.05D-08 DE=-2.84D-14 OVMax= 6.32D-08

 SCF Done:  E(RB3LYP) =  -115.711698834     A.U. after   11 cycles
            NFock= 11  Conv=0.49D-08     -V/T= 2.0078
 KE= 1.148143899968D+02 PE=-3.520821826408D+02 EE= 8.112873878131D+01
 Leave Link  502 at Sun Oct 13 20:14:21 2019, MaxMem=  1342177280 cpu:              75.6 elap:              15.7
 (Enter /apps/cent7/gaussian/g16-A.03/g16-haswell/g16/l601.exe)
 Copying SCF densities to generalized density rwf, IOpCl= 0 IROHF=0.

 **********************************************************************

            Population analysis using the SCF density.

 **********************************************************************

 Orbital symmetries:
       Occupied  (A') (A') (A') (A') (A') (A") (A') (A') (A")
       Virtual   (A') (A') (A') (A") (A') (A') (A') (A") (A') (A")
                 (A') (A') (A') (A") (A') (A') (A') (A") (A') (A")
                 (A') (A') (A") (A') (A") (A') (A') (A') (A')
 The electronic state is 1-A'.
 Alpha  occ. eigenvalues --  -19.13278 -10.21688  -1.00426  -0.68541  -0.49914
 Alpha  occ. eigenvalues --   -0.43992  -0.42559  -0.32543  -0.26052
 Alpha virt. eigenvalues --    0.07705   0.13708   0.17801   0.18082   0.20061
 Alpha virt. eigenvalues --    0.53374   0.56118   0.56515   0.79852   0.87258
 Alpha virt. eigenvalues --    0.88121   0.92713   0.96040   0.97326   1.03260
 Alpha virt. eigenvalues --    1.12584   1.45713   1.49257   1.60304   1.75408
 Alpha virt. eigenvalues --    2.05526   2.08935   2.19334   2.36460   2.38250
 Alpha virt. eigenvalues --    2.46249   2.79175   3.70238   4.23134
          Condensed to atoms (all electrons):
               1          2          3          4          5          6
     1  C    4.828644   0.391563   0.374893   0.374893   0.261879  -0.028160
     2  H    0.391563   0.545157  -0.037381  -0.037381  -0.033327   0.006308
     3  H    0.374893  -0.037381   0.619011  -0.048291  -0.039174  -0.005074
     4  H    0.374893  -0.037381  -0.048291   0.619011  -0.039174  -0.005074
     5  O    0.261879  -0.033327  -0.039174  -0.039174   8.234666   0.238888
     6  H   -0.028160   0.006308  -0.005074  -0.005074   0.238888   0.402737
 Mulliken charges:
               1
     1  C   -0.203711
     2  H    0.165060
     3  H    0.136017
     4  H    0.136017
     5  O   -0.623758
     6  H    0.390376
 Sum of Mulliken charges =   0.00000
 Mulliken charges with hydrogens summed into heavy atoms:
               1
     1  C    0.233382
     5  O   -0.233382
 Electronic spatial extent (au):  <R**2>=             83.3579
 Charge=              0.0000 electrons
 Dipole moment (field-independent basis, Debye):
    X=              1.4450    Y=              0.9727    Z=             -0.0000  Tot=              1.7419
 Quadrupole moment (field-independent basis, Debye-Ang):
   XX=            -11.4997   YY=            -12.8591   ZZ=            -13.4583
   XY=             -2.2208   XZ=             -0.0000   YZ=             -0.0000
 Traceless Quadrupole moment (field-independent basis, Debye-Ang):
   XX=              1.1060   YY=             -0.2534   ZZ=             -0.8526
   XY=             -2.2208   XZ=             -0.0000   YZ=             -0.0000
 Octapole moment (field-independent basis, Debye-Ang**2):
  XXX=              1.1347  YYY=             -3.8774  ZZZ=             -0.0000  XYY=              2.1515
  XXY=             -2.0555  XXZ=             -0.0000  XZZ=              0.5845  YZZ=             -0.5142
  YYZ=             -0.0000  XYZ=             -0.0000
 Hexadecapole moment (field-independent basis, Debye-Ang**3):
 XXXX=            -18.1332 YYYY=            -60.0222 ZZZZ=            -18.3297 XXXY=             -0.8796
 XXXZ=              0.0000 YYYX=             -1.5040 YYYZ=             -0.0000 ZZZX=              0.0000
 ZZZY=             -0.0000 XXYY=            -11.7030 XXZZ=             -6.3661 YYZZ=            -13.5719
 XXYZ=             -0.0000 YYXZ=             -0.0000 ZZXY=              0.7341
 N-N= 4.042735502887D+01 E-N=-3.520821807248D+02  KE= 1.148143899968D+02
 Symmetry A'   KE= 1.081158114163D+02
 Symmetry A"   KE= 6.698578580527D+00
 No NMR shielding tensors so no spin-rotation constants.
 Leave Link  601 at Sun Oct 13 20:14:25 2019, MaxMem=  1342177280 cpu:              17.2 elap:               3.6
 (Enter /apps/cent7/gaussian/g16-A.03/g16-haswell/g16/l701.exe)
 ... and contract with generalized density number  0.
 Compute integral first derivatives.
 Leave Link  701 at Sun Oct 13 20:14:28 2019, MaxMem=  1342177280 cpu:              13.2 elap:               2.8
 (Enter /apps/cent7/gaussian/g16-A.03/g16-haswell/g16/l702.exe)
 L702 exits ... SP integral derivatives will be done elsewhere.
 Leave Link  702 at Sun Oct 13 20:14:28 2019, MaxMem=  1342177280 cpu:               1.7 elap:               0.3
 (Enter /apps/cent7/gaussian/g16-A.03/g16-haswell/g16/l703.exe)
 Integral derivatives from FoFJK, PRISM(SPDF).
 Compute integral first derivatives, UseDBF=F ICtDFT=           0.
 Calling FoFJK, ICntrl=      2127 FMM=F ISym2X=1 I1Cent= 0 IOpClX= 0 NMat=1 NMatS=1 NMatT=0.
 FoFJK:  IHMeth= 1 ICntrl=    2127 DoSepK=F KAlg= 0 I1Cent=           0 FoldK=F
 IRaf=         0 NMat=       1 IRICut=       1 DoRegI=T DoRafI=F ISym2E= 1 IDoP0=0 IntGTp=1.
 FoFCou: FMM=F IPFlag=           0 FMFlag=      100000 FMFlg1=         800
         NFxFlg=           0 DoJE=F BraDBF=F KetDBF=F FulRan=T
         wScrn=  0.000000 ICntrl=      2127 IOpCl=  0 I1Cent=           0 NGrid=           0
         NMat0=    1 NMatS0=      1 NMatT0=    0 NMatD0=    1 NMtDS0=    0 NMtDT0=    0
 Petite list used in FoFCou.
 Leave Link  703 at Sun Oct 13 20:14:31 2019, MaxMem=  1342177280 cpu:              14.0 elap:               2.9
 (Enter /apps/cent7/gaussian/g16-A.03/g16-haswell/g16/l716.exe)
 Dipole        = 5.68519893D-01 3.82702930D-01-1.01969070D-15
 ***** Axes restored to original set *****
 -------------------------------------------------------------------
 Center     Atomic                   Forces (Hartrees/Bohr)
 Number     Number              X              Y              Z
 -------------------------------------------------------------------
      1        6           0.003872799    0.023326186   -0.019791195
      2        1           0.007256878   -0.013701548   -0.003940166
      3        1           0.005106455    0.005128610    0.020392515
      4        1          -0.020770278   -0.004019840    0.004546386
      5        8           0.009053385   -0.016698106   -0.005143859
      6        1          -0.004519239    0.005964698    0.003936319
 -------------------------------------------------------------------
 Cartesian Forces:  Max     0.023326186 RMS     0.012022970
 Leave Link  716 at Sun Oct 13 20:14:31 2019, MaxMem=  1342177280 cpu:               1.9 elap:               0.4
 (Enter /apps/cent7/gaussian/g16-A.03/g16-haswell/g16/l103.exe)

 GradGradGradGradGradGradGradGradGradGradGradGradGradGradGradGradGradGrad
 Berny optimization.
 FormGI is forming the generalized inverse of G from B-inverse, IUseBI=4.
 Internal  Forces:  Max     0.020769928 RMS     0.010218265
 Search for a local minimum.
 Step number   1 out of a maximum of   25
 All quantities printed in internal units (Hartrees-Bohrs-Radians)
 RMS Force = .10218D-01 SwitMx=.10000D-02 MixMth= 1
 Mixed Optimization -- RFO/linear search
 Second derivative matrix not updated -- first step.
 The second derivative matrix:
                          R1        R2        R3        R4        R5
           R1           0.37230
           R2           0.00000   0.37230
           R3           0.00000   0.00000   0.37230
           R4           0.00000   0.00000   0.00000   0.40989
           R5           0.00000   0.00000   0.00000   0.00000   0.55473
           A1           0.00000   0.00000   0.00000   0.00000   0.00000
           A2           0.00000   0.00000   0.00000   0.00000   0.00000
           A3           0.00000   0.00000   0.00000   0.00000   0.00000
           A4           0.00000   0.00000   0.00000   0.00000   0.00000
           A5           0.00000   0.00000   0.00000   0.00000   0.00000
           A6           0.00000   0.00000   0.00000   0.00000   0.00000
           A7           0.00000   0.00000   0.00000   0.00000   0.00000
           D1           0.00000   0.00000   0.00000   0.00000   0.00000
           D2           0.00000   0.00000   0.00000   0.00000   0.00000
           D3           0.00000   0.00000   0.00000   0.00000   0.00000
                          A1        A2        A3        A4        A5
           A1           0.16000
           A2           0.00000   0.16000
           A3           0.00000   0.00000   0.16000
           A4           0.00000   0.00000   0.00000   0.16000
           A5           0.00000   0.00000   0.00000   0.00000   0.16000
           A6           0.00000   0.00000   0.00000   0.00000   0.00000
           A7           0.00000   0.00000   0.00000   0.00000   0.00000
           D1           0.00000   0.00000   0.00000   0.00000   0.00000
           D2           0.00000   0.00000   0.00000   0.00000   0.00000
           D3           0.00000   0.00000   0.00000   0.00000   0.00000
                          A6        A7        D1        D2        D3
           A6           0.16000
           A7           0.00000   0.16000
           D1           0.00000   0.00000   0.01295
           D2           0.00000   0.00000   0.00000   0.01295
           D3           0.00000   0.00000   0.00000   0.00000   0.01295
 ITU=  0
     Eigenvalues ---    0.01295   0.10344   0.10344   0.16000   0.16000
     Eigenvalues ---    0.16000   0.16000   0.37230   0.37230   0.37230
     Eigenvalues ---    0.40989   0.55473
 RFO step:  Lambda=-5.69590396D-03 EMin= 1.29493787D-02
 Linear search not attempted -- first point.
 Iteration  1 RMS(Cart)=  0.04388996 RMS(Int)=  0.00158667
 Iteration  2 RMS(Cart)=  0.00102620 RMS(Int)=  0.00120874
 Iteration  3 RMS(Cart)=  0.00000271 RMS(Int)=  0.00120874
 Iteration  4 RMS(Cart)=  0.00000001 RMS(Int)=  0.00120874
 ITry= 1 IFail=0 DXMaxC= 8.29D-02 DCOld= 1.00D+10 DXMaxT= 3.00D-01 DXLimC= 3.00D+00 Rises=F
 ClnCor:  largest displacement from symmetrization is 6.49D-13 for atom     4.
 Variable       Old X    -DE/DX   Delta X   Delta X   Delta X     New X
                                 (Linear)    (Quad)   (Total)
    R1        2.02201   0.01534   0.00000   0.04057   0.04057   2.06258
    R2        2.02201   0.02077   0.00000   0.05495   0.05495   2.07695
    R3        2.02201   0.02077   0.00000   0.05495   0.05495   2.07695
    R4        2.70231  -0.00256   0.00000  -0.00616  -0.00616   2.69614
    R5        1.81414   0.00713   0.00000   0.01272   0.01272   1.82686
    A1        1.91063  -0.00197   0.00000  -0.01912  -0.01863   1.89201
    A2        1.91063  -0.00197   0.00000  -0.01912  -0.01863   1.89201
    A3        1.91063  -0.01117   0.00000  -0.07466  -0.07415   1.83648
    A4        1.91063  -0.00349   0.00000  -0.00657  -0.00917   1.90147
    A5        1.91063   0.00930   0.00000   0.05974   0.05843   1.96906
    A6        1.91063   0.00930   0.00000   0.05974   0.05843   1.96906
    A7        1.91063  -0.00825   0.00000  -0.04977  -0.04977   1.86086
    D1       -3.14159   0.00000   0.00000   0.00000  -0.00000   3.14159
    D2       -1.04720  -0.00355   0.00000  -0.03256  -0.03490  -1.08210
    D3        1.04720   0.00355   0.00000   0.03256   0.03490   1.08210
         Item               Value     Threshold  Converged?
 Maximum Force            0.020770     0.000450     NO 
 RMS     Force            0.010218     0.000300     NO 
 Maximum Displacement     0.082899     0.001800     NO 
 RMS     Displacement     0.043825     0.001200     NO 
 Predicted change in Energy=-2.944160D-03
 Lowest energy point so far.  Saving SCF results.
 GradGradGradGradGradGradGradGradGradGradGradGradGradGradGradGradGradGrad

 Leave Link  103 at Sun Oct 13 20:14:42 2019, MaxMem=  1342177280 cpu:              51.8 elap:              10.8
 (Enter /apps/cent7/gaussian/g16-A.03/g16-haswell/g16/l202.exe)
                          Input orientation:                          
 ---------------------------------------------------------------------
 Center     Atomic      Atomic             Coordinates (Angstroms)
 Number     Number       Type             X           Y           Z
 ---------------------------------------------------------------------
      1          6           0       -0.137313    0.101010    0.768290
      2          1           0        0.244690   -0.920869    0.734440
      3          1           0        0.225389    0.576682    1.690327
      4          1           0       -1.235289    0.060274    0.795852
      5          8           0        0.363699    0.727518   -0.411565
      6          1           0        0.036273    1.637062   -0.401986
 ---------------------------------------------------------------------
                    Distance matrix (angstroms):
                    1          2          3          4          5
     1  C    0.000000
     2  H    1.091470   0.000000
     3  H    1.099077   1.776725   0.000000
     4  H    1.099077   1.776725   1.788950   0.000000
     5  O    1.426738   2.011136   2.111831   2.111831   0.000000
     6  H    1.938849   2.806762   2.353285   2.353285   0.966732
                    6
     6  H    0.000000
 Stoichiometry    CH4O
 Framework group  CS[SG(CH2O),X(H2)]
 Deg. of freedom     8
 Full point group                 CS      NOp   2
 RotChk:  IX=0 Diff= 5.41D-02
 Largest Abelian subgroup         CS      NOp   2
 Largest concise Abelian subgroup CS      NOp   2
                         Standard orientation:                         
 ---------------------------------------------------------------------
 Center     Atomic      Atomic             Coordinates (Angstroms)
 Number     Number       Type             X           Y           Z
 ---------------------------------------------------------------------
      1          6           0       -0.045799    0.665448   -0.000000
      2          1           0       -1.098972    0.952038   -0.000000
      3          1           0        0.429805    1.091693    0.894475
      4          1           0        0.429805    1.091693   -0.894475
      5          8           0       -0.045799   -0.761290    0.000000
      6          1           0        0.880548   -1.037789    0.000000
 ---------------------------------------------------------------------
 Rotational constants (GHZ):         126.8875456          24.6407599          23.7631034
 Leave Link  202 at Sun Oct 13 20:14:43 2019, MaxMem=  1342177280 cpu:               2.3 elap:               0.5
 (Enter /apps/cent7/gaussian/g16-A.03/g16-haswell/g16/l301.exe)
 Standard basis: 6-31G(d) (6D, 7F)
 Ernie: Thresh=  0.10000D-02 Tol=  0.10000D-05 Strict=F.
 There are    28 symmetry adapted cartesian basis functions of A'  symmetry.
 There are    10 symmetry adapted cartesian basis functions of A"  symmetry.
 There are    28 symmetry adapted basis functions of A'  symmetry.
 There are    10 symmetry adapted basis functions of A"  symmetry.
    38 basis functions,    72 primitive gaussians,    38 cartesian basis functions
     9 alpha electrons        9 beta electrons
       nuclear repulsion energy        40.1505484035 Hartrees.
 IExCor=  402 DFT=T Ex+Corr=B3LYP ExCW=0 ScaHFX=  0.200000
 ScaDFX=  0.800000  0.720000  1.000000  0.810000 ScalE2=  1.000000  1.000000
 IRadAn=      5 IRanWt=     -1 IRanGd=            0 ICorTp=0 IEmpDi=  4
 NAtoms=    6 NActive=    6 NUniq=    5 SFac= 1.44D+00 NAtFMM=   60 NAOKFM=F Big=F
 Integral buffers will be    131072 words long.
 Raffenetti 2 integral format.
 Two-electron integral symmetry is turned on.
 Leave Link  301 at Sun Oct 13 20:14:43 2019, MaxMem=  1342177280 cpu:               2.5 elap:               0.5
 (Enter /apps/cent7/gaussian/g16-A.03/g16-haswell/g16/l302.exe)
 NPDir=0 NMtPBC=     1 NCelOv=     1 NCel=       1 NClECP=     1 NCelD=      1
         NCelK=      1 NCelE2=     1 NClLst=     1 CellRange=     0.0.
 One-electron integrals computed using PRISM.
 One-electron integral symmetry used in STVInt
 NBasis=    38 RedAO= T EigKep=  9.85D-03  NBF=    28    10
 NBsUse=    38 1.00D-06 EigRej= -1.00D+00 NBFU=    28    10
 Precomputing XC quadrature grid using
 IXCGrd= 4 IRadAn=           5 IRanWt=          -1 IRanGd=           0 AccXCQ= 0.00D+00.
 Generated NRdTot=       0 NPtTot=           0 NUsed=           0 NTot=          32
 NSgBfM=    38    38    38    38    38 MxSgAt=     6 MxSgA2=     6.
 Leave Link  302 at Sun Oct 13 20:14:47 2019, MaxMem=  1342177280 cpu:              18.2 elap:               3.8
 (Enter /apps/cent7/gaussian/g16-A.03/g16-haswell/g16/l303.exe)
 DipDrv:  MaxL=1.
 Leave Link  303 at Sun Oct 13 20:14:48 2019, MaxMem=  1342177280 cpu:               3.2 elap:               0.7
 (Enter /apps/cent7/gaussian/g16-A.03/g16-haswell/g16/l401.exe)
 Initial guess from the checkpoint file:  "methanol.chk"
 B after Tr=     0.000000    0.000000   -0.000000
         Rot=    0.999941    0.000000    0.000000   -0.010868 Ang=  -1.25 deg.
 Guess basis will be translated and rotated to current coordinates.
 JPrj=2 DoOrth=T DoCkMO=T.
 Initial guess orbital symmetries:
       Occupied  (A') (A') (A') (A') (A') (A") (A') (A') (A")
       Virtual   (A') (A') (A') (A") (A') (A') (A') (A") (A') (A")
                 (A') (A') (A') (A") (A') (A') (A') (A") (A') (A")
                 (A') (A') (A") (A') (A") (A') (A') (A') (A')
 The electronic state of the initial guess is 1-A'.
 Generating alternative initial guess.
 ExpMin= 1.61D-01 ExpMax= 5.48D+03 ExpMxC= 8.25D+02 IAcc=2 IRadAn=         4 AccDes= 0.00D+00
 Harris functional with IExCor=  402 and IRadAn=       4 diagonalized for initial guess.
 HarFok:  IExCor=  402 AccDes= 0.00D+00 IRadAn=         4 IDoV= 1 UseB2=F ITyADJ=14
 ICtDFT=  3500011 ScaDFX=  1.000000  1.000000  1.000000  1.000000
 FoFCou: FMM=F IPFlag=           0 FMFlag=      100000 FMFlg1=           0
         NFxFlg=           0 DoJE=T BraDBF=F KetDBF=T FulRan=T
         wScrn=  0.000000 ICntrl=       500 IOpCl=  0 I1Cent=   200000004 NGrid=           0
         NMat0=    1 NMatS0=      1 NMatT0=    0 NMatD0=    1 NMtDS0=    0 NMtDT0=    0
 Petite list used in FoFCou.
 Harris En= -115.744119555041    
 Leave Link  401 at Sun Oct 13 20:14:56 2019, MaxMem=  1342177280 cpu:              41.1 elap:               8.6
 (Enter /apps/cent7/gaussian/g16-A.03/g16-haswell/g16/l502.exe)
 Keep R1 ints in memory in symmetry-blocked form, NReq=20986235.
 FoFCou: FMM=F IPFlag=           0 FMFlag=           0 FMFlg1=           0
         NFxFlg=           0 DoJE=F BraDBF=F KetDBF=F FulRan=T
         wScrn=  0.000000 ICntrl=       600 IOpCl=  0 I1Cent=           0 NGrid=           0
         NMat0=    1 NMatS0=    741 NMatT0=    0 NMatD0=    1 NMtDS0=    0 NMtDT0=    0
 Petite list used in FoFCou.
 Closed shell SCF:
 Using DIIS extrapolation, IDIIS=  1040.
 NGot=  1342177280 LenX=  1342024961 LenY=  1342023076
 Requested convergence on RMS density matrix=1.00D-08 within 128 cycles.
 Requested convergence on MAX density matrix=1.00D-06.
 Requested convergence on             energy=1.00D-06.
 No special actions if energy rises.
 Integral accuracy reduced to 1.0D-05 until final iterations.

 Cycle   1  Pass 0  IDiag  1:
 E= -115.713344283416    
 DIIS: error= 3.70D-03 at cycle   1 NSaved=   1.
 NSaved= 1 IEnMin= 1 EnMin= -115.713344283416     IErMin= 1 ErrMin= 3.70D-03
 ErrMax= 3.70D-03  0.00D+00 EMaxC= 1.00D-01 BMatC= 6.03D-04 BMatP= 6.03D-04
 IDIUse=3 WtCom= 9.63D-01 WtEn= 3.70D-02
 Coeff-Com:  0.100D+01
 Coeff-En:   0.100D+01
 Coeff:      0.100D+01
 Gap=     0.342 Goal=   None    Shift=    0.000
 GapD=    0.342 DampG=1.000 DampE=1.000 DampFc=1.0000 IDamp=-1.
 RMSDP=1.18D-03 MaxDP=9.73D-03              OVMax= 1.20D-02

 Cycle   2  Pass 0  IDiag  1:
 E= -115.714092162329     Delta-E=       -0.000747878913 Rises=F Damp=F
 DIIS: error= 2.83D-03 at cycle   2 NSaved=   2.
 NSaved= 2 IEnMin= 2 EnMin= -115.714092162329     IErMin= 2 ErrMin= 2.83D-03
 ErrMax= 2.83D-03  0.00D+00 EMaxC= 1.00D-01 BMatC= 1.77D-04 BMatP= 6.03D-04
 IDIUse=3 WtCom= 9.72D-01 WtEn= 2.83D-02
 Coeff-Com:  0.293D+00 0.707D+00
 Coeff-En:   0.000D+00 0.100D+01
 Coeff:      0.285D+00 0.715D+00
 Gap=     0.340 Goal=   None    Shift=    0.000
 RMSDP=4.22D-04 MaxDP=5.29D-03 DE=-7.48D-04 OVMax= 5.84D-03

 Cycle   3  Pass 0  IDiag  1:
 E= -115.714208662946     Delta-E=       -0.000116500617 Rises=F Damp=F
 DIIS: error= 1.53D-03 at cycle   3 NSaved=   3.
 NSaved= 3 IEnMin= 3 EnMin= -115.714208662946     IErMin= 3 ErrMin= 1.53D-03
 ErrMax= 1.53D-03  0.00D+00 EMaxC= 1.00D-01 BMatC= 6.36D-05 BMatP= 1.77D-04
 IDIUse=3 WtCom= 9.85D-01 WtEn= 1.53D-02
 Coeff-Com: -0.210D-02 0.370D+00 0.632D+00
 Coeff-En:   0.000D+00 0.240D+00 0.760D+00
 Coeff:     -0.206D-02 0.368D+00 0.634D+00
 Gap=     0.341 Goal=   None    Shift=    0.000
 RMSDP=1.59D-04 MaxDP=1.79D-03 DE=-1.17D-04 OVMax= 2.24D-03

 Cycle   4  Pass 0  IDiag  1:
 E= -115.714263423555     Delta-E=       -0.000054760608 Rises=F Damp=F
 DIIS: error= 2.82D-04 at cycle   4 NSaved=   4.
 NSaved= 4 IEnMin= 4 EnMin= -115.714263423555     IErMin= 4 ErrMin= 2.82D-04
 ErrMax= 2.82D-04  0.00D+00 EMaxC= 1.00D-01 BMatC= 2.93D-06 BMatP= 6.36D-05
 IDIUse=3 WtCom= 9.97D-01 WtEn= 2.82D-03
 Coeff-Com: -0.772D-02 0.160D+00 0.307D+00 0.541D+00
 Coeff-En:   0.000D+00 0.000D+00 0.000D+00 0.100D+01
 Coeff:     -0.770D-02 0.159D+00 0.306D+00 0.542D+00
 Gap=     0.341 Goal=   None    Shift=    0.000
 RMSDP=4.23D-05 MaxDP=4.60D-04 DE=-5.48D-05 OVMax= 4.64D-04

 Cycle   5  Pass 0  IDiag  1:
 E= -115.714265397609     Delta-E=       -0.000001974054 Rises=F Damp=F
 DIIS: error= 6.66D-05 at cycle   5 NSaved=   5.
 NSaved= 5 IEnMin= 5 EnMin= -115.714265397609     IErMin= 5 ErrMin= 6.66D-05
 ErrMax= 6.66D-05  0.00D+00 EMaxC= 1.00D-01 BMatC= 2.48D-07 BMatP= 2.93D-06
 IDIUse=1 WtCom= 1.00D+00 WtEn= 0.00D+00
 Coeff-Com: -0.454D-02 0.407D-01 0.841D-01 0.265D+00 0.615D+00
 Coeff:     -0.454D-02 0.407D-01 0.841D-01 0.265D+00 0.615D+00
 Gap=     0.341 Goal=   None    Shift=    0.000
 RMSDP=1.01D-05 MaxDP=1.12D-04 DE=-1.97D-06 OVMax= 1.15D-04

 Cycle   6  Pass 0  IDiag  1:
 E= -115.714265579512     Delta-E=       -0.000000181903 Rises=F Damp=F
 DIIS: error= 6.86D-06 at cycle   6 NSaved=   6.
 NSaved= 6 IEnMin= 6 EnMin= -115.714265579512     IErMin= 6 ErrMin= 6.86D-06
 ErrMax= 6.86D-06  0.00D+00 EMaxC= 1.00D-01 BMatC= 1.89D-09 BMatP= 2.48D-07
 IDIUse=1 WtCom= 1.00D+00 WtEn= 0.00D+00
 Coeff-Com: -0.333D-03-0.708D-03-0.164D-02 0.176D-01 0.108D+00 0.877D+00
 Coeff:     -0.333D-03-0.708D-03-0.164D-02 0.176D-01 0.108D+00 0.877D+00
 Gap=     0.341 Goal=   None    Shift=    0.000
 RMSDP=1.27D-06 MaxDP=1.07D-05 DE=-1.82D-07 OVMax= 1.44D-05

 Initial convergence to 1.0D-05 achieved.  Increase integral accuracy.
 Cycle   7  Pass 1  IDiag  1:
 E= -115.714263437798     Delta-E=        0.000002141714 Rises=F Damp=F
 DIIS: error= 8.36D-07 at cycle   1 NSaved=   1.
 NSaved= 1 IEnMin= 1 EnMin= -115.714263437798     IErMin= 1 ErrMin= 8.36D-07
 ErrMax= 8.36D-07  0.00D+00 EMaxC= 1.00D-01 BMatC= 4.70D-11 BMatP= 4.70D-11
 IDIUse=1 WtCom= 1.00D+00 WtEn= 0.00D+00
 Coeff-Com:  0.100D+01
 Coeff:      0.100D+01
 Gap=     0.341 Goal=   None    Shift=    0.000
 RMSDP=1.27D-06 MaxDP=1.07D-05 DE= 2.14D-06 OVMax= 3.27D-06

 Cycle   8  Pass 1  IDiag  1:
 E= -115.714263437832     Delta-E=       -0.000000000034 Rises=F Damp=F
 DIIS: error= 6.47D-07 at cycle   2 NSaved=   2.
 NSaved= 2 IEnMin= 2 EnMin= -115.714263437832     IErMin= 2 ErrMin= 6.47D-07
 ErrMax= 6.47D-07  0.00D+00 EMaxC= 1.00D-01 BMatC= 1.97D-11 BMatP= 4.70D-11
 IDIUse=1 WtCom= 1.00D+00 WtEn= 0.00D+00
 Coeff-Com:  0.369D+00 0.631D+00
 Coeff:      0.369D+00 0.631D+00
 Gap=     0.341 Goal=   None    Shift=    0.000
 RMSDP=1.30D-07 MaxDP=1.48D-06 DE=-3.38D-11 OVMax= 1.44D-06

 Cycle   9  Pass 1  IDiag  1:
 E= -115.714263437843     Delta-E=       -0.000000000011 Rises=F Damp=F
 DIIS: error= 3.51D-07 at cycle   3 NSaved=   3.
 NSaved= 3 IEnMin= 3 EnMin= -115.714263437843     IErMin= 3 ErrMin= 3.51D-07
 ErrMax= 3.51D-07  0.00D+00 EMaxC= 1.00D-01 BMatC= 5.45D-12 BMatP= 1.97D-11
 IDIUse=1 WtCom= 1.00D+00 WtEn= 0.00D+00
 Coeff-Com:  0.692D-01 0.353D+00 0.578D+00
 Coeff:      0.692D-01 0.353D+00 0.578D+00
 Gap=     0.341 Goal=   None    Shift=    0.000
 RMSDP=4.59D-08 MaxDP=5.30D-07 DE=-1.09D-11 OVMax= 4.97D-07

 Cycle  10  Pass 1  IDiag  1:
 E= -115.714263437847     Delta-E=       -0.000000000004 Rises=F Damp=F
 DIIS: error= 4.75D-08 at cycle   4 NSaved=   4.
 NSaved= 4 IEnMin= 4 EnMin= -115.714263437847     IErMin= 4 ErrMin= 4.75D-08
 ErrMax= 4.75D-08  0.00D+00 EMaxC= 1.00D-01 BMatC= 1.20D-13 BMatP= 5.45D-12
 IDIUse=1 WtCom= 1.00D+00 WtEn= 0.00D+00
 Coeff-Com: -0.334D-02 0.749D-01 0.193D+00 0.736D+00
 Coeff:     -0.334D-02 0.749D-01 0.193D+00 0.736D+00
 Gap=     0.341 Goal=   None    Shift=    0.000
 RMSDP=9.93D-09 MaxDP=9.53D-08 DE=-3.95D-12 OVMax= 1.36D-07

 SCF Done:  E(RB3LYP) =  -115.714263438     A.U. after   10 cycles
            NFock= 10  Conv=0.99D-08     -V/T= 2.0088
 KE= 1.147052627225D+02 PE=-3.514187832552D+02 EE= 8.084870869130D+01
 Leave Link  502 at Sun Oct 13 20:15:21 2019, MaxMem=  1342177280 cpu:             120.7 elap:              25.1
 (Enter /apps/cent7/gaussian/g16-A.03/g16-haswell/g16/l701.exe)
 ... and contract with generalized density number  0.
 Compute integral first derivatives.
 Leave Link  701 at Sun Oct 13 20:15:24 2019, MaxMem=  1342177280 cpu:              12.0 elap:               2.5
 (Enter /apps/cent7/gaussian/g16-A.03/g16-haswell/g16/l702.exe)
 L702 exits ... SP integral derivatives will be done elsewhere.
 Leave Link  702 at Sun Oct 13 20:15:24 2019, MaxMem=  1342177280 cpu:               1.4 elap:               0.3
 (Enter /apps/cent7/gaussian/g16-A.03/g16-haswell/g16/l703.exe)
 Integral derivatives from FoFJK, PRISM(SPDF).
 Compute integral first derivatives, UseDBF=F ICtDFT=           0.
 Calling FoFJK, ICntrl=      2127 FMM=F ISym2X=1 I1Cent= 0 IOpClX= 0 NMat=1 NMatS=1 NMatT=0.
 FoFJK:  IHMeth= 1 ICntrl=    2127 DoSepK=F KAlg= 0 I1Cent=           0 FoldK=F
 IRaf=         0 NMat=       1 IRICut=       1 DoRegI=T DoRafI=F ISym2E= 1 IDoP0=0 IntGTp=1.
 FoFCou: FMM=F IPFlag=           0 FMFlag=      100000 FMFlg1=         800
         NFxFlg=           0 DoJE=F BraDBF=F KetDBF=F FulRan=T
         wScrn=  0.000000 ICntrl=      2127 IOpCl=  0 I1Cent=           0 NGrid=           0
         NMat0=    1 NMatS0=      1 NMatT0=    0 NMatD0=    1 NMtDS0=    0 NMtDT0=    0
 Petite list used in FoFCou.
 Leave Link  703 at Sun Oct 13 20:15:27 2019, MaxMem=  1342177280 cpu:              15.8 elap:               3.3
 (Enter /apps/cent7/gaussian/g16-A.03/g16-haswell/g16/l716.exe)
 Dipole        = 5.65345792D-01 3.71090242D-01 7.78317868D-17
 ***** Axes restored to original set *****
 -------------------------------------------------------------------
 Center     Atomic                   Forces (Hartrees/Bohr)
 Number     Number              X              Y              Z
 -------------------------------------------------------------------
      1        6           0.004274964   -0.001191258   -0.006293268
      2        1          -0.000771065   -0.001769410    0.002280684
      3        1           0.000106270    0.000739517    0.000611156
      4        1          -0.000883034    0.000389759    0.000005336
      5        8          -0.002774237   -0.000836731    0.005013401
      6        1           0.000047104    0.002668124   -0.001617309
 -------------------------------------------------------------------
 Cartesian Forces:  Max     0.006293268 RMS     0.002509508
 Leave Link  716 at Sun Oct 13 20:15:28 2019, MaxMem=  1342177280 cpu:               1.7 elap:               0.3
 (Enter /apps/cent7/gaussian/g16-A.03/g16-haswell/g16/l103.exe)

 GradGradGradGradGradGradGradGradGradGradGradGradGradGradGradGradGradGrad
 Berny optimization.
 Using GEDIIS/GDIIS optimizer.
 FormGI is forming the generalized inverse of G from B-inverse, IUseBI=4.
 Internal  Forces:  Max     0.004582619 RMS     0.001967529
 Search for a local minimum.
 Step number   2 out of a maximum of   25
 All quantities printed in internal units (Hartrees-Bohrs-Radians)
 RMS Force = .19675D-02 SwitMx=.10000D-02 MixMth= 1
 Mixed Optimization -- RFO/linear search
 Update second derivatives using D2CorX and points    1    2
 DE= -2.56D-03 DEPred=-2.94D-03 R= 8.71D-01
 TightC=F SS=  1.41D+00  RLast= 1.61D-01 DXNew= 5.0454D-01 4.8282D-01
 Trust test= 8.71D-01 RLast= 1.61D-01 DXMaxT set to 4.83D-01
 The second derivative matrix:
                          R1        R2        R3        R4        R5
           R1           0.36259
           R2          -0.01107   0.36025
           R3          -0.01107  -0.01205   0.36025
           R4           0.00786   0.01070   0.01070   0.40876
           R5          -0.00885  -0.01130  -0.01130   0.00355   0.54917
           A1           0.00583   0.00774   0.00774  -0.00144   0.00304
           A2           0.00583   0.00774   0.00774  -0.00144   0.00304
           A3          -0.00314  -0.00658  -0.00658  -0.00648   0.00338
           A4          -0.00294  -0.00443  -0.00443  -0.00087  -0.00043
           A5          -0.00212  -0.00133  -0.00133   0.00498  -0.00419
           A6          -0.00212  -0.00133  -0.00133   0.00498  -0.00419
           A7          -0.00469  -0.00809  -0.00809  -0.00442   0.00141
           D1           0.00000   0.00000   0.00000  -0.00000   0.00000
           D2          -0.00944  -0.01348  -0.01348  -0.00051  -0.00296
           D3           0.00944   0.01348   0.01348   0.00051   0.00296
                          A1        A2        A3        A4        A5
           A1           0.15856
           A2          -0.00144   0.15856
           A3          -0.00378  -0.00378   0.17456
           A4          -0.00028  -0.00028   0.00466   0.16113
           A5           0.00332   0.00332  -0.00631  -0.00267   0.16157
           A6           0.00332   0.00332  -0.00631  -0.00267   0.00157
           A7          -0.00234  -0.00234   0.01267   0.00370  -0.00615
           D1          -0.00000  -0.00000  -0.00000  -0.00000   0.00000
           D2           0.00055   0.00055   0.01102   0.00222  -0.00715
           D3          -0.00055  -0.00055  -0.01102  -0.00222   0.00715
                          A6        A7        D1        D2        D3
           A6           0.16157
           A7          -0.00615   0.17067
           D1           0.00000  -0.00000   0.01295
           D2          -0.00715   0.00827  -0.00000   0.01650
           D3           0.00715  -0.00827   0.00000  -0.00355   0.01650
 ITU=  1  0
 Use linear search instead of GDIIS.
     Eigenvalues ---    0.01295   0.10294   0.10596   0.15584   0.16000
     Eigenvalues ---    0.16000   0.19435   0.33580   0.37230   0.37264
     Eigenvalues ---    0.41364   0.55089
 RFO step:  Lambda=-2.27845623D-04 EMin= 1.29493787D-02
 Quartic linear search produced a step of -0.08107.
 Iteration  1 RMS(Cart)=  0.01048864 RMS(Int)=  0.00011423
 Iteration  2 RMS(Cart)=  0.00007855 RMS(Int)=  0.00008182
 Iteration  3 RMS(Cart)=  0.00000000 RMS(Int)=  0.00008182
 ITry= 1 IFail=0 DXMaxC= 2.02D-02 DCOld= 1.00D+10 DXMaxT= 4.83D-01 DXLimC= 3.00D+00 Rises=F
 ClnCor:  largest displacement from symmetrization is 8.67D-09 for atom     4.
 Variable       Old X    -DE/DX   Delta X   Delta X   Delta X     New X
                                 (Linear)    (Quad)   (Total)
    R1        2.06258   0.00132  -0.00329   0.00828   0.00499   2.06757
    R2        2.07695   0.00087  -0.00445   0.00895   0.00450   2.08145
    R3        2.07695   0.00087  -0.00445   0.00895   0.00450   2.08145
    R4        2.69614  -0.00296   0.00050  -0.00739  -0.00690   2.68925
    R5        1.82686   0.00248  -0.00103   0.00568   0.00465   1.83151
    A1        1.89201  -0.00092   0.00151  -0.00504  -0.00360   1.88841
    A2        1.89201  -0.00092   0.00151  -0.00504  -0.00360   1.88841
    A3        1.83648   0.00458   0.00601   0.01972   0.02566   1.86214
    A4        1.90147  -0.00043   0.00074  -0.00817  -0.00728   1.89419
    A5        1.96906  -0.00109  -0.00474  -0.00051  -0.00519   1.96387
    A6        1.96906  -0.00109  -0.00474  -0.00051  -0.00519   1.96387
    A7        1.86086   0.00346   0.00403   0.01371   0.01775   1.87861
    D1        3.14159  -0.00000   0.00000   0.00000   0.00000   3.14159
    D2       -1.08210   0.00115   0.00283   0.00589   0.00889  -1.07321
    D3        1.08210  -0.00115  -0.00283  -0.00589  -0.00889   1.07321
         Item               Value     Threshold  Converged?
 Maximum Force            0.004583     0.000450     NO 
 RMS     Force            0.001968     0.000300     NO 
 Maximum Displacement     0.020250     0.001800     NO 
 RMS     Displacement     0.010445     0.001200     NO 
 Predicted change in Energy=-1.327394D-04
 Lowest energy point so far.  Saving SCF results.
 GradGradGradGradGradGradGradGradGradGradGradGradGradGradGradGradGradGrad

 Leave Link  103 at Sun Oct 13 20:15:38 2019, MaxMem=  1342177280 cpu:              48.4 elap:              10.1
 (Enter /apps/cent7/gaussian/g16-A.03/g16-haswell/g16/l202.exe)
                          Input orientation:                          
 ---------------------------------------------------------------------
 Center     Atomic      Atomic             Coordinates (Angstroms)
 Number     Number       Type             X           Y           Z
 ---------------------------------------------------------------------
      1          6           0       -0.133085    0.096349    0.764075
      2          1           0        0.241831   -0.931344    0.745156
      3          1           0        0.226465    0.576726    1.687747
      4          1           0       -1.233563    0.060549    0.793670
      5          8           0        0.360225    0.733100   -0.409116
      6          1           0        0.035573    1.646296   -0.406175
 ---------------------------------------------------------------------
                    Distance matrix (angstroms):
                    1          2          3          4          5
     1  C    0.000000
     2  H    1.094109   0.000000
     3  H    1.101458   1.778481   0.000000
     4  H    1.101458   1.778481   1.788154   0.000000
     5  O    1.423090   2.028974   2.106936   2.106936   0.000000
     6  H    1.949427   2.830606   2.359010   2.359010   0.969192
                    6
     6  H    0.000000
 Stoichiometry    CH4O
 Framework group  CS[SG(CH2O),X(H2)]
 Deg. of freedom     8
 Full point group                 CS      NOp   2
 RotChk:  IX=0 Diff= 1.39D-02
 Largest Abelian subgroup         CS      NOp   2
 Largest concise Abelian subgroup CS      NOp   2
                         Standard orientation:                         
 ---------------------------------------------------------------------
 Center     Atomic      Atomic             Coordinates (Angstroms)
 Number     Number       Type             X           Y           Z
 ---------------------------------------------------------------------
      1          6           0       -0.047050    0.663521   -0.000000
      2          1           0       -1.095052    0.977794   -0.000000
      3          1           0        0.438583    1.085416    0.894077
      4          1           0        0.438583    1.085416   -0.894077
      5          8           0       -0.047050   -0.759568    0.000000
      6          1           0        0.876589   -1.053206    0.000000
 ---------------------------------------------------------------------
 Rotational constants (GHZ):         126.9199661          24.6610933          23.7799406
 Leave Link  202 at Sun Oct 13 20:15:38 2019, MaxMem=  1342177280 cpu:               2.0 elap:               0.4
 (Enter /apps/cent7/gaussian/g16-A.03/g16-haswell/g16/l301.exe)
 Standard basis: 6-31G(d) (6D, 7F)
 Ernie: Thresh=  0.10000D-02 Tol=  0.10000D-05 Strict=F.
 There are    28 symmetry adapted cartesian basis functions of A'  symmetry.
 There are    10 symmetry adapted cartesian basis functions of A"  symmetry.
 There are    28 symmetry adapted basis functions of A'  symmetry.
 There are    10 symmetry adapted basis functions of A"  symmetry.
    38 basis functions,    72 primitive gaussians,    38 cartesian basis functions
     9 alpha electrons        9 beta electrons
       nuclear repulsion energy        40.1443640314 Hartrees.
 IExCor=  402 DFT=T Ex+Corr=B3LYP ExCW=0 ScaHFX=  0.200000
 ScaDFX=  0.800000  0.720000  1.000000  0.810000 ScalE2=  1.000000  1.000000
 IRadAn=      5 IRanWt=     -1 IRanGd=            0 ICorTp=0 IEmpDi=  4
 NAtoms=    6 NActive=    6 NUniq=    5 SFac= 1.44D+00 NAtFMM=   60 NAOKFM=F Big=F
 Integral buffers will be    131072 words long.
 Raffenetti 2 integral format.
 Two-electron integral symmetry is turned on.
 Leave Link  301 at Sun Oct 13 20:15:39 2019, MaxMem=  1342177280 cpu:               2.6 elap:               0.5
 (Enter /apps/cent7/gaussian/g16-A.03/g16-haswell/g16/l302.exe)
 NPDir=0 NMtPBC=     1 NCelOv=     1 NCel=       1 NClECP=     1 NCelD=      1
         NCelK=      1 NCelE2=     1 NClLst=     1 CellRange=     0.0.
 One-electron integrals computed using PRISM.
 One-electron integral symmetry used in STVInt
 NBasis=    38 RedAO= T EigKep=  9.87D-03  NBF=    28    10
 NBsUse=    38 1.00D-06 EigRej= -1.00D+00 NBFU=    28    10
 Precomputing XC quadrature grid using
 IXCGrd= 4 IRadAn=           5 IRanWt=          -1 IRanGd=           0 AccXCQ= 0.00D+00.
 Generated NRdTot=       0 NPtTot=           0 NUsed=           0 NTot=          32
 NSgBfM=    38    38    38    38    38 MxSgAt=     6 MxSgA2=     6.
 Leave Link  302 at Sun Oct 13 20:15:42 2019, MaxMem=  1342177280 cpu:              15.7 elap:               3.3
 (Enter /apps/cent7/gaussian/g16-A.03/g16-haswell/g16/l303.exe)
 DipDrv:  MaxL=1.
 Leave Link  303 at Sun Oct 13 20:15:43 2019, MaxMem=  1342177280 cpu:               4.4 elap:               0.9
 (Enter /apps/cent7/gaussian/g16-A.03/g16-haswell/g16/l401.exe)
 Initial guess from the checkpoint file:  "methanol.chk"
 B after Tr=     0.000000   -0.000000    0.000000
         Rot=    0.999996   -0.000000    0.000000    0.002740 Ang=   0.31 deg.
 Guess basis will be translated and rotated to current coordinates.
 JPrj=2 DoOrth=T DoCkMO=T.
 Initial guess orbital symmetries:
       Occupied  (A') (A') (A') (A') (A') (A") (A') (A') (A")
       Virtual   (A') (A') (A') (A") (A') (A') (A') (A") (A') (A")
                 (A') (A') (A') (A") (A') (A') (A') (A") (A') (A")
                 (A') (A") (A') (A') (A") (A') (A') (A') (A')
 The electronic state of the initial guess is 1-A'.
 Generating alternative initial guess.
 ExpMin= 1.61D-01 ExpMax= 5.48D+03 ExpMxC= 8.25D+02 IAcc=2 IRadAn=         4 AccDes= 0.00D+00
 Harris functional with IExCor=  402 and IRadAn=       4 diagonalized for initial guess.
 HarFok:  IExCor=  402 AccDes= 0.00D+00 IRadAn=         4 IDoV= 1 UseB2=F ITyADJ=14
 ICtDFT=  3500011 ScaDFX=  1.000000  1.000000  1.000000  1.000000
 FoFCou: FMM=F IPFlag=           0 FMFlag=      100000 FMFlg1=           0
         NFxFlg=           0 DoJE=T BraDBF=F KetDBF=T FulRan=T
         wScrn=  0.000000 ICntrl=       500 IOpCl=  0 I1Cent=   200000004 NGrid=           0
         NMat0=    1 NMatS0=      1 NMatT0=    0 NMatD0=    1 NMtDS0=    0 NMtDT0=    0
 Petite list used in FoFCou.
 Harris En= -115.744035799160    
 Leave Link  401 at Sun Oct 13 20:15:51 2019, MaxMem=  1342177280 cpu:              40.8 elap:               8.5
 (Enter /apps/cent7/gaussian/g16-A.03/g16-haswell/g16/l502.exe)
 Keep R1 ints in memory in symmetry-blocked form, NReq=20986235.
 FoFCou: FMM=F IPFlag=           0 FMFlag=           0 FMFlg1=           0
         NFxFlg=           0 DoJE=F BraDBF=F KetDBF=F FulRan=T
         wScrn=  0.000000 ICntrl=       600 IOpCl=  0 I1Cent=           0 NGrid=           0
         NMat0=    1 NMatS0=    741 NMatT0=    0 NMatD0=    1 NMtDS0=    0 NMtDT0=    0
 Petite list used in FoFCou.
 Closed shell SCF:
 Using DIIS extrapolation, IDIIS=  1040.
 NGot=  1342177280 LenX=  1342024961 LenY=  1342023076
 Requested convergence on RMS density matrix=1.00D-08 within 128 cycles.
 Requested convergence on MAX density matrix=1.00D-06.
 Requested convergence on             energy=1.00D-06.
 No special actions if energy rises.
 Integral accuracy reduced to 1.0D-05 until final iterations.

 Cycle   1  Pass 0  IDiag  1:
 E= -115.714345856434    
 DIIS: error= 9.41D-04 at cycle   1 NSaved=   1.
 NSaved= 1 IEnMin= 1 EnMin= -115.714345856434     IErMin= 1 ErrMin= 9.41D-04
 ErrMax= 9.41D-04  0.00D+00 EMaxC= 1.00D-01 BMatC= 3.17D-05 BMatP= 3.17D-05
 IDIUse=3 WtCom= 9.91D-01 WtEn= 9.41D-03
 Coeff-Com:  0.100D+01
 Coeff-En:   0.100D+01
 Coeff:      0.100D+01
 Gap=     0.340 Goal=   None    Shift=    0.000
 RMSDP=2.56D-04 MaxDP=2.01D-03              OVMax= 2.91D-03

 Cycle   2  Pass 0  IDiag  1:
 E= -115.714390906242     Delta-E=       -0.000045049808 Rises=F Damp=F
 DIIS: error= 3.54D-04 at cycle   2 NSaved=   2.
 NSaved= 2 IEnMin= 2 EnMin= -115.714390906242     IErMin= 2 ErrMin= 3.54D-04
 ErrMax= 3.54D-04  0.00D+00 EMaxC= 1.00D-01 BMatC= 2.91D-06 BMatP= 3.17D-05
 IDIUse=3 WtCom= 9.96D-01 WtEn= 3.54D-03
 Coeff-Com:  0.104D+00 0.896D+00
 Coeff-En:   0.000D+00 0.100D+01
 Coeff:      0.103D+00 0.897D+00
 Gap=     0.340 Goal=   None    Shift=    0.000
 RMSDP=6.86D-05 MaxDP=8.36D-04 DE=-4.50D-05 OVMax= 9.54D-04

 Cycle   3  Pass 0  IDiag  1:
 E= -115.714391542804     Delta-E=       -0.000000636562 Rises=F Damp=F
 DIIS: error= 3.28D-04 at cycle   3 NSaved=   3.
 NSaved= 3 IEnMin= 3 EnMin= -115.714391542804     IErMin= 3 ErrMin= 3.28D-04
 ErrMax= 3.28D-04  0.00D+00 EMaxC= 1.00D-01 BMatC= 2.38D-06 BMatP= 2.91D-06
 IDIUse=3 WtCom= 9.97D-01 WtEn= 3.28D-03
 Coeff-Com: -0.178D-01 0.478D+00 0.540D+00
 Coeff-En:   0.000D+00 0.438D+00 0.562D+00
 Coeff:     -0.178D-01 0.478D+00 0.540D+00
 Gap=     0.340 Goal=   None    Shift=    0.000
 RMSDP=3.24D-05 MaxDP=4.04D-04 DE=-6.37D-07 OVMax= 4.22D-04

 Cycle   4  Pass 0  IDiag  1:
 E= -115.714393806555     Delta-E=       -0.000002263751 Rises=F Damp=F
 DIIS: error= 2.13D-05 at cycle   4 NSaved=   4.
 NSaved= 4 IEnMin= 4 EnMin= -115.714393806555     IErMin= 4 ErrMin= 2.13D-05
 ErrMax= 2.13D-05  0.00D+00 EMaxC= 1.00D-01 BMatC= 2.48D-08 BMatP= 2.38D-06
 IDIUse=1 WtCom= 1.00D+00 WtEn= 0.00D+00
 Coeff-Com: -0.969D-02 0.153D+00 0.198D+00 0.659D+00
 Coeff:     -0.969D-02 0.153D+00 0.198D+00 0.659D+00
 Gap=     0.339 Goal=   None    Shift=    0.000
 RMSDP=4.43D-06 MaxDP=4.64D-05 DE=-2.26D-06 OVMax= 4.85D-05

 Initial convergence to 1.0D-05 achieved.  Increase integral accuracy.
 Cycle   5  Pass 1  IDiag  1:
 E= -115.714392338679     Delta-E=        0.000001467876 Rises=F Damp=F
 DIIS: error= 1.41D-05 at cycle   1 NSaved=   1.
 NSaved= 1 IEnMin= 1 EnMin= -115.714392338679     IErMin= 1 ErrMin= 1.41D-05
 ErrMax= 1.41D-05  0.00D+00 EMaxC= 1.00D-01 BMatC= 8.28D-09 BMatP= 8.28D-09
 IDIUse=1 WtCom= 1.00D+00 WtEn= 0.00D+00
 Coeff-Com:  0.100D+01
 Coeff:      0.100D+01
 Gap=     0.340 Goal=   None    Shift=    0.000
 RMSDP=4.43D-06 MaxDP=4.64D-05 DE= 1.47D-06 OVMax= 4.87D-05

 Cycle   6  Pass 1  IDiag  1:
 E= -115.714392331602     Delta-E=        0.000000007077 Rises=F Damp=F
 DIIS: error= 2.07D-05 at cycle   2 NSaved=   2.
 NSaved= 2 IEnMin= 1 EnMin= -115.714392338679     IErMin= 1 ErrMin= 1.41D-05
 ErrMax= 2.07D-05  0.00D+00 EMaxC= 1.00D-01 BMatC= 1.84D-08 BMatP= 8.28D-09
 IDIUse=1 WtCom= 1.00D+00 WtEn= 0.00D+00
 Coeff-Com:  0.599D+00 0.401D+00
 Coeff:      0.599D+00 0.401D+00
 Gap=     0.339 Goal=   None    Shift=    0.000
 RMSDP=2.52D-06 MaxDP=2.88D-05 DE= 7.08D-09 OVMax= 2.67D-05

 Cycle   7  Pass 1  IDiag  1:
 E= -115.714392344626     Delta-E=       -0.000000013024 Rises=F Damp=F
 DIIS: error= 1.07D-06 at cycle   3 NSaved=   3.
 NSaved= 3 IEnMin= 3 EnMin= -115.714392344626     IErMin= 3 ErrMin= 1.07D-06
 ErrMax= 1.07D-06  0.00D+00 EMaxC= 1.00D-01 BMatC= 2.86D-11 BMatP= 8.28D-09
 IDIUse=1 WtCom= 1.00D+00 WtEn= 0.00D+00
 Coeff-Com:  0.243D+00 0.166D+00 0.591D+00
 Coeff:      0.243D+00 0.166D+00 0.591D+00
 Gap=     0.339 Goal=   None    Shift=    0.000
 RMSDP=1.39D-07 MaxDP=1.79D-06 DE=-1.30D-08 OVMax= 1.92D-06

 Cycle   8  Pass 1  IDiag  1:
 E= -115.714392344651     Delta-E=       -0.000000000026 Rises=F Damp=F
 DIIS: error= 3.40D-07 at cycle   4 NSaved=   4.
 NSaved= 4 IEnMin= 4 EnMin= -115.714392344651     IErMin= 4 ErrMin= 3.40D-07
 ErrMax= 3.40D-07  0.00D+00 EMaxC= 1.00D-01 BMatC= 2.45D-12 BMatP= 2.86D-11
 IDIUse=1 WtCom= 1.00D+00 WtEn= 0.00D+00
 Coeff-Com:  0.163D-01 0.114D-01 0.232D+00 0.740D+00
 Coeff:      0.163D-01 0.114D-01 0.232D+00 0.740D+00
 Gap=     0.339 Goal=   None    Shift=    0.000
 RMSDP=3.53D-08 MaxDP=4.62D-07 DE=-2.57D-11 OVMax= 5.18D-07

 Cycle   9  Pass 1  IDiag  1:
 E= -115.714392344653     Delta-E=       -0.000000000002 Rises=F Damp=F
 DIIS: error= 1.67D-08 at cycle   5 NSaved=   5.
 NSaved= 5 IEnMin= 5 EnMin= -115.714392344653     IErMin= 5 ErrMin= 1.67D-08
 ErrMax= 1.67D-08  0.00D+00 EMaxC= 1.00D-01 BMatC= 2.32D-14 BMatP= 2.45D-12
 IDIUse=1 WtCom= 1.00D+00 WtEn= 0.00D+00
 Coeff-Com: -0.783D-02-0.587D-02 0.113D-01 0.101D+00 0.902D+00
 Coeff:     -0.783D-02-0.587D-02 0.113D-01 0.101D+00 0.902D+00
 Gap=     0.339 Goal=   None    Shift=    0.000
 RMSDP=5.17D-09 MaxDP=3.56D-08 DE=-2.16D-12 OVMax= 5.76D-08

 SCF Done:  E(RB3LYP) =  -115.714392345     A.U. after    9 cycles
            NFock=  9  Conv=0.52D-08     -V/T= 2.0089
 KE= 1.146922166681D+02 PE=-3.513976535280D+02 EE= 8.084668048388D+01
 Leave Link  502 at Sun Oct 13 20:16:14 2019, MaxMem=  1342177280 cpu:             109.5 elap:              22.8
 (Enter /apps/cent7/gaussian/g16-A.03/g16-haswell/g16/l701.exe)
 ... and contract with generalized density number  0.
 Compute integral first derivatives.
 Leave Link  701 at Sun Oct 13 20:16:17 2019, MaxMem=  1342177280 cpu:              13.2 elap:               2.7
 (Enter /apps/cent7/gaussian/g16-A.03/g16-haswell/g16/l702.exe)
 L702 exits ... SP integral derivatives will be done elsewhere.
 Leave Link  702 at Sun Oct 13 20:16:18 2019, MaxMem=  1342177280 cpu:               2.8 elap:               0.6
 (Enter /apps/cent7/gaussian/g16-A.03/g16-haswell/g16/l703.exe)
 Integral derivatives from FoFJK, PRISM(SPDF).
 Compute integral first derivatives, UseDBF=F ICtDFT=           0.
 Calling FoFJK, ICntrl=      2127 FMM=F ISym2X=1 I1Cent= 0 IOpClX= 0 NMat=1 NMatS=1 NMatT=0.
 FoFJK:  IHMeth= 1 ICntrl=    2127 DoSepK=F KAlg= 0 I1Cent=           0 FoldK=F
 IRaf=         0 NMat=       1 IRICut=       1 DoRegI=T DoRafI=F ISym2E= 1 IDoP0=0 IntGTp=1.
 FoFCou: FMM=F IPFlag=           0 FMFlag=      100000 FMFlg1=         800
         NFxFlg=           0 DoJE=F BraDBF=F KetDBF=F FulRan=T
         wScrn=  0.000000 ICntrl=      2127 IOpCl=  0 I1Cent=           0 NGrid=           0
         NMat0=    1 NMatS0=      1 NMatT0=    0 NMatD0=    1 NMtDS0=    0 NMtDT0=    0
 Petite list used in FoFCou.
 Leave Link  703 at Sun Oct 13 20:16:20 2019, MaxMem=  1342177280 cpu:              13.7 elap:               2.8
 (Enter /apps/cent7/gaussian/g16-A.03/g16-haswell/g16/l716.exe)
 Dipole        = 5.65875036D-01 3.58572757D-01-5.13076667D-17
 ***** Axes restored to original set *****
 -------------------------------------------------------------------
 Center     Atomic                   Forces (Hartrees/Bohr)
 Number     Number              X              Y              Z
 -------------------------------------------------------------------
      1        6           0.000762221    0.001394377   -0.002049724
      2        1          -0.000167424    0.000590420   -0.000067463
      3        1          -0.000196402   -0.000318014   -0.000132053
      4        1           0.000323200   -0.000134314    0.000186135
      5        8          -0.000776823   -0.001046644    0.001872812
      6        1           0.000055228   -0.000485825    0.000190294
 -------------------------------------------------------------------
 Cartesian Forces:  Max     0.002049724 RMS     0.000846684
 Leave Link  716 at Sun Oct 13 20:16:21 2019, MaxMem=  1342177280 cpu:               1.8 elap:               0.3
 (Enter /apps/cent7/gaussian/g16-A.03/g16-haswell/g16/l103.exe)

 GradGradGradGradGradGradGradGradGradGradGradGradGradGradGradGradGradGrad
 Berny optimization.
 Using GEDIIS/GDIIS optimizer.
 FormGI is forming the generalized inverse of G from B-inverse, IUseBI=4.
 Internal  Forces:  Max     0.002636746 RMS     0.000744914
 Search for a local minimum.
 Step number   3 out of a maximum of   25
 All quantities printed in internal units (Hartrees-Bohrs-Radians)
 RMS Force = .74491D-03 SwitMx=.10000D-02 MixMth= 2
 Mixed Optimization -- En-DIIS/RFO-DIIS
 Update second derivatives using D2CorX and points    1    2    3
 DE= -1.29D-04 DEPred=-1.33D-04 R= 9.71D-01
 TightC=F SS=  1.41D+00  RLast= 3.74D-02 DXNew= 8.1201D-01 1.1219D-01
 Trust test= 9.71D-01 RLast= 3.74D-02 DXMaxT set to 4.83D-01
 The second derivative matrix:
                          R1        R2        R3        R4        R5
           R1           0.37389
           R2          -0.00304   0.36577
           R3          -0.00304  -0.00653   0.36577
           R4           0.02760   0.02889   0.02889   0.37273
           R5           0.00251  -0.00378  -0.00378   0.03166   0.55974
           A1           0.00212   0.00513   0.00513  -0.00812  -0.00070
           A2           0.00212   0.00513   0.00513  -0.00812  -0.00070
           A3           0.00600  -0.00206  -0.00206   0.03911   0.00942
           A4           0.00189   0.00026   0.00026  -0.01408   0.00697
           A5          -0.00504  -0.00309  -0.00309  -0.00398  -0.00681
           A6          -0.00504  -0.00309  -0.00309  -0.00398  -0.00681
           A7           0.00595  -0.00145  -0.00145   0.02683   0.01088
           D1          -0.00000   0.00000   0.00000   0.00000  -0.00000
           D2          -0.00080  -0.00661  -0.00661   0.00104   0.00740
           D3           0.00080   0.00661   0.00661  -0.00104  -0.00740
                          A1        A2        A3        A4        A5
           A1           0.15979
           A2          -0.00021   0.15979
           A3          -0.00680  -0.00680   0.17048
           A4          -0.00193  -0.00193   0.01770   0.15656
           A5           0.00431   0.00431  -0.00747  -0.00512   0.16229
           A6           0.00431   0.00431  -0.00747  -0.00512   0.00229
           A7          -0.00588  -0.00588   0.01673   0.01216  -0.00853
           D1           0.00000   0.00000  -0.00000   0.00000   0.00000
           D2          -0.00236  -0.00236   0.02398   0.00177  -0.01024
           D3           0.00236   0.00236  -0.02398  -0.00177   0.01024
                          A6        A7        D1        D2        D3
           A6           0.16229
           A7          -0.00853   0.17902
           D1           0.00000  -0.00000   0.01295
           D2          -0.01024   0.01906  -0.00000   0.02058
           D3           0.01024  -0.01906   0.00000  -0.00763   0.02058
 ITU=  1  1  0
 Use linear search instead of GDIIS.
     Eigenvalues ---    0.01295   0.10424   0.10459   0.14711   0.16000
     Eigenvalues ---    0.16009   0.20776   0.32308   0.37230   0.37348
     Eigenvalues ---    0.41821   0.56735
 RFO step:  Lambda=-2.12758939D-05 EMin= 1.29493787D-02
 Quartic linear search produced a step of -0.03053.
 Iteration  1 RMS(Cart)=  0.00193308 RMS(Int)=  0.00000150
 Iteration  2 RMS(Cart)=  0.00000150 RMS(Int)=  0.00000031
 Iteration  3 RMS(Cart)=  0.00000000 RMS(Int)=  0.00000031
 ITry= 1 IFail=0 DXMaxC= 2.95D-03 DCOld= 1.00D+10 DXMaxT= 4.83D-01 DXLimC= 3.00D+00 Rises=F
 ClnCor:  largest displacement from symmetrization is 2.07D-10 for atom     4.
 Variable       Old X    -DE/DX   Delta X   Delta X   Delta X     New X
                                 (Linear)    (Quad)   (Total)
    R1        2.06757  -0.00061  -0.00015  -0.00089  -0.00104   2.06652
    R2        2.08145  -0.00031  -0.00014  -0.00014  -0.00028   2.08117
    R3        2.08145  -0.00031  -0.00014  -0.00014  -0.00028   2.08117
    R4        2.68925  -0.00264   0.00021  -0.00715  -0.00694   2.68231
    R5        1.83151  -0.00048  -0.00014  -0.00023  -0.00037   1.83114
    A1        1.88841  -0.00011   0.00011  -0.00145  -0.00134   1.88707
    A2        1.88841  -0.00011   0.00011  -0.00145  -0.00134   1.88707
    A3        1.86214  -0.00030  -0.00078   0.00092   0.00013   1.86228
    A4        1.89419  -0.00019   0.00022  -0.00159  -0.00137   1.89282
    A5        1.96387   0.00034   0.00016   0.00168   0.00184   1.96571
    A6        1.96387   0.00034   0.00016   0.00168   0.00184   1.96571
    A7        1.87861  -0.00041  -0.00054  -0.00036  -0.00090   1.87770
    D1        3.14159  -0.00000  -0.00000   0.00000   0.00000  -3.14159
    D2       -1.07321  -0.00013  -0.00027  -0.00023  -0.00050  -1.07372
    D3        1.07321   0.00013   0.00027   0.00023   0.00050   1.07372
         Item               Value     Threshold  Converged?
 Maximum Force            0.002637     0.000450     NO 
 RMS     Force            0.000745     0.000300     NO 
 Maximum Displacement     0.002952     0.001800     NO 
 RMS     Displacement     0.001933     0.001200     NO 
 Predicted change in Energy=-1.076712D-05
 Lowest energy point so far.  Saving SCF results.
 GradGradGradGradGradGradGradGradGradGradGradGradGradGradGradGradGradGrad

 Leave Link  103 at Sun Oct 13 20:16:30 2019, MaxMem=  1342177280 cpu:              45.1 elap:               9.4
 (Enter /apps/cent7/gaussian/g16-A.03/g16-haswell/g16/l202.exe)
                          Input orientation:                          
 ---------------------------------------------------------------------
 Center     Atomic      Atomic             Coordinates (Angstroms)
 Number     Number       Type             X           Y           Z
 ---------------------------------------------------------------------
      1          6           0       -0.132640    0.097556    0.762652
      2          1           0        0.241631   -0.929802    0.744593
      3          1           0        0.226212    0.576649    1.687086
      4          1           0       -1.232902    0.060794    0.793569
      5          8           0        0.359898    0.731745   -0.407800
      6          1           0        0.035248    1.644734   -0.404742
 ---------------------------------------------------------------------
                    Distance matrix (angstroms):
                    1          2          3          4          5
     1  C    0.000000
     2  H    1.093557   0.000000
     3  H    1.101310   1.777055   0.000000
     4  H    1.101310   1.777055   1.787035   0.000000
     5  O    1.419418   2.025521   2.104870   2.104870   0.000000
     6  H    1.945445   2.826977   2.356485   2.356485   0.968997
                    6
     6  H    0.000000
 Stoichiometry    CH4O
 Framework group  CS[SG(CH2O),X(H2)]
 Deg. of freedom     8
 Full point group                 CS      NOp   2
 RotChk:  IX=0 Diff= 1.08D-03
 Largest Abelian subgroup         CS      NOp   2
 Largest concise Abelian subgroup CS      NOp   2
                         Standard orientation:                         
 ---------------------------------------------------------------------
 Center     Atomic      Atomic             Coordinates (Angstroms)
 Number     Number       Type             X           Y           Z
 ---------------------------------------------------------------------
      1          6           0       -0.046988    0.661435   -0.000000
      2          1           0       -1.094419    0.975690   -0.000000
      3          1           0        0.437760    1.085145    0.893517
      4          1           0        0.437760    1.085145   -0.893517
      5          8           0       -0.046988   -0.757983    0.000000
      6          1           0        0.876730   -1.050727    0.000000
 ---------------------------------------------------------------------
 Rotational constants (GHZ):         127.0695134          24.7629426          23.8753647
 Leave Link  202 at Sun Oct 13 20:16:31 2019, MaxMem=  1342177280 cpu:               2.9 elap:               0.6
 (Enter /apps/cent7/gaussian/g16-A.03/g16-haswell/g16/l301.exe)
 Standard basis: 6-31G(d) (6D, 7F)
 Ernie: Thresh=  0.10000D-02 Tol=  0.10000D-05 Strict=F.
 There are    28 symmetry adapted cartesian basis functions of A'  symmetry.
 There are    10 symmetry adapted cartesian basis functions of A"  symmetry.
 There are    28 symmetry adapted basis functions of A'  symmetry.
 There are    10 symmetry adapted basis functions of A"  symmetry.
    38 basis functions,    72 primitive gaussians,    38 cartesian basis functions
     9 alpha electrons        9 beta electrons
       nuclear repulsion energy        40.2058672380 Hartrees.
 IExCor=  402 DFT=T Ex+Corr=B3LYP ExCW=0 ScaHFX=  0.200000
 ScaDFX=  0.800000  0.720000  1.000000  0.810000 ScalE2=  1.000000  1.000000
 IRadAn=      5 IRanWt=     -1 IRanGd=            0 ICorTp=0 IEmpDi=  4
 NAtoms=    6 NActive=    6 NUniq=    5 SFac= 1.44D+00 NAtFMM=   60 NAOKFM=F Big=F
 Integral buffers will be    131072 words long.
 Raffenetti 2 integral format.
 Two-electron integral symmetry is turned on.
 Leave Link  301 at Sun Oct 13 20:16:31 2019, MaxMem=  1342177280 cpu:               2.6 elap:               0.6
 (Enter /apps/cent7/gaussian/g16-A.03/g16-haswell/g16/l302.exe)
 NPDir=0 NMtPBC=     1 NCelOv=     1 NCel=       1 NClECP=     1 NCelD=      1
         NCelK=      1 NCelE2=     1 NClLst=     1 CellRange=     0.0.
 One-electron integrals computed using PRISM.
 One-electron integral symmetry used in STVInt
 NBasis=    38 RedAO= T EigKep=  9.82D-03  NBF=    28    10
 NBsUse=    38 1.00D-06 EigRej= -1.00D+00 NBFU=    28    10
 Precomputing XC quadrature grid using
 IXCGrd= 4 IRadAn=           5 IRanWt=          -1 IRanGd=           0 AccXCQ= 0.00D+00.
 Generated NRdTot=       0 NPtTot=           0 NUsed=           0 NTot=          32
 NSgBfM=    38    38    38    38    38 MxSgAt=     6 MxSgA2=     6.
 Leave Link  302 at Sun Oct 13 20:16:34 2019, MaxMem=  1342177280 cpu:              11.8 elap:               2.4
 (Enter /apps/cent7/gaussian/g16-A.03/g16-haswell/g16/l303.exe)
[...]
                                                                                                                         X           
 
 ***** Axes restored to original set *****
 -------------------------------------------------------------------
 Center     Atomic                   Forces (Hartrees/Bohr)
 Number     Number              X              Y              Z
 -------------------------------------------------------------------
      1        6          -0.000006849   -0.000006786    0.000015101
      2        1           0.000018142   -0.000025059   -0.000015159
      3        1           0.000007233    0.000025412   -0.000001554
      4        1          -0.000013121    0.000018216   -0.000014018
      5        8          -0.000010319    0.000025188    0.000002310
      6        1           0.000004914   -0.000036972    0.000013320
 -------------------------------------------------------------------
 Cartesian Forces:  Max     0.000036972 RMS     0.000017035
 Force constants in Cartesian coordinates: 
                1             2             3             4             5 
      1  0.560253D+00
      2 -0.307791D-01  0.591710D+00
      3  0.213490D-01  0.333662D-01  0.508318D+00
      4 -0.886763D-01  0.944842D-01  0.268168D-02  0.873567D-01
      5  0.883093D-01 -0.282966D+00 -0.118067D-01 -0.952243D-01  0.310582D+00
      6  0.624663D-02 -0.218903D-01 -0.511930D-01 -0.793446D-02  0.438548D-02
      7 -0.863230D-01 -0.413274D-01 -0.710450D-01  0.527440D-02  0.604466D-02
      8 -0.395580D-01 -0.110383D+00 -0.943642D-01 -0.124105D-01 -0.125804D-01
      9 -0.701650D-01 -0.920933D-01 -0.208092D+00 -0.869229D-03 -0.215055D-02
     10 -0.295759D+00 -0.578296D-03 -0.716466D-02 -0.104417D-01  0.282125D-03
     11  0.137122D-03 -0.557657D-01 -0.212961D-02  0.314124D-01  0.283976D-02
     12 -0.947923D-02 -0.342748D-03 -0.532735D-01  0.219025D-02 -0.119523D-02
     13 -0.920104D-01 -0.286587D-02  0.489946D-01  0.649082D-02  0.217897D-02
     14 -0.278680D-01 -0.122777D+00  0.800074D-01 -0.154554D-01 -0.184211D-01
     15  0.634291D-01  0.391789D-01 -0.189220D+00  0.124368D-02  0.810923D-02
     16  0.251591D-02 -0.189335D-01  0.518438D-02 -0.396921D-05 -0.159070D-02
     17  0.975874D-02 -0.198189D-01 -0.507309D-02 -0.280626D-02  0.545712D-03
     18 -0.113805D-01  0.417813D-01 -0.654030D-02  0.268808D-02  0.265782D-02
                6             7             8             9            10 
      6  0.592574D-01
      7  0.104195D-01  0.839066D-01
      8 -0.249846D-01  0.454816D-01  0.109006D+00
      9  0.919065D-03  0.727056D-01  0.978651D-01  0.241515D+00
     10 -0.178084D-02 -0.109538D-01  0.128124D-02 -0.227215D-02  0.323763D+00
     11  0.940426D-03 -0.168473D-01  0.131673D-02 -0.231699D-02  0.646636D-02
     12  0.121492D-02 -0.272250D-01 -0.374102D-04  0.202709D-02 -0.269352D-02
     13 -0.893718D-02  0.818632D-02  0.438755D-02  0.116798D-03 -0.733914D-02
     14  0.369062D-01  0.595080D-02  0.105891D-01 -0.189411D-03 -0.768561D-02
     15 -0.492431D-02  0.162459D-01  0.212045D-01 -0.371522D-01  0.134254D-01
     16  0.198630D-02 -0.905927D-04  0.818192D-03  0.483963D-03  0.730924D-03
     17  0.464284D-02  0.697720D-03  0.205190D-02 -0.111479D-02  0.234190D-03
     18 -0.527407D-02 -0.110106D-02  0.316618D-03  0.782997D-03  0.485732D-03
               11            12            13            14            15 
     11  0.514396D-01
     12 -0.461132D-02  0.592254D-01
     13 -0.197162D-01  0.374027D-01  0.156342D+00
     14 -0.812981D-03  0.800330D-02 -0.126702D+00  0.569536D+00
     15  0.880814D-02 -0.102246D-01 -0.106322D+00 -0.950940D-01  0.274964D+00
     16 -0.145233D-02 -0.195161D-03 -0.716699D-01  0.171761D+00  0.119778D-01
     17  0.982625D-03 -0.181659D-02  0.142718D+00 -0.438114D+00  0.177933D-01
     18 -0.690644D-03  0.103076D-02  0.287450D-01 -0.296334D-01 -0.334433D-01
               16            17            18 
     16  0.685177D-01
     17 -0.150602D+00  0.454353D+00
     18 -0.194373D-01 -0.144317D-01  0.434439D-01
 FormGI is forming the generalized inverse of G from B-inverse, IUseBI=4.
 Force constants in internal coordinates: 
                1             2             3             4             5 
      1  0.345826D+00
      2  0.358160D-02  0.323825D+00
      3  0.358160D-02  0.494012D-02  0.323825D+00
      4  0.121162D-01  0.182353D-01  0.182353D-01  0.359933D+00
      5 -0.195158D-02 -0.733591D-04 -0.733591D-04 -0.325014D-02  0.506105D+00
      6  0.654172D-02  0.820391D-02 -0.561897D-02 -0.279216D-01 -0.568031D-03
      7  0.654172D-02 -0.561897D-02  0.820391D-02 -0.279216D-01 -0.568031D-03
      8  0.179202D-02 -0.434964D-02 -0.434964D-02  0.299359D-01  0.816638D-02
      9 -0.468160D-02  0.888185D-02  0.888185D-02 -0.284648D-01  0.119894D-02
     10 -0.450173D-02 -0.269552D-02 -0.433986D-02  0.253629D-01 -0.396732D-02
     11 -0.450173D-02 -0.433986D-02 -0.269552D-02  0.253629D-01 -0.396732D-02
     12  0.314237D-02 -0.632105D-05 -0.632105D-05  0.522028D-01  0.167848D-01
     13  0.000000D+00 -0.544512D-02  0.544512D-02  0.000000D+00  0.000000D+00
     14  0.659371D-02  0.286421D-03 -0.667471D-02 -0.647626D-03  0.226685D-02
     15 -0.659371D-02  0.667471D-02 -0.286421D-03  0.647626D-03 -0.226685D-02
                6             7             8             9            10 
      6  0.741689D-01
      7  0.389333D-02  0.741689D-01
      8 -0.400769D-01 -0.400769D-01  0.140856D+00
      9  0.469909D-02  0.469909D-02 -0.856789D-03  0.766324D-01
     10 -0.363329D-01 -0.141559D-02 -0.300918D-01 -0.419309D-01  0.138962D+00
     11 -0.141559D-02 -0.363329D-01 -0.300918D-01 -0.419309D-01 -0.341877D-01
     12 -0.548915D-02 -0.548915D-02  0.218579D-01  0.151790D-02 -0.615576D-02
     13 -0.218270D-01  0.218270D-01  0.000000D+00  0.000000D+00 -0.190058D-01
     14  0.227137D-01  0.192590D-03  0.238169D-01 -0.186129D-01 -0.376012D-02
     15 -0.192590D-03 -0.227137D-01 -0.238169D-01  0.186129D-01  0.213635D-01
               11            12            13            14            15 
     11  0.138962D+00
     12 -0.615576D-02  0.190421D+00
     13  0.190058D-01  0.000000D+00  0.261294D-01
     14 -0.213635D-01  0.374518D-02 -0.113792D-01  0.294944D-01
     15  0.376012D-02 -0.374518D-02 -0.113792D-01 -0.146912D-01  0.294944D-01
 Leave Link  716 at Sun Oct 13 20:18:02 2019, MaxMem=  1342177280 cpu:               8.4 elap:               1.7
 (Enter /apps/cent7/gaussian/g16-A.03/g16-haswell/g16/l103.exe)

 GradGradGradGradGradGradGradGradGradGradGradGradGradGradGradGradGradGrad
 Berny optimization.
 Red2BG is reusing G-inverse.
 Internal  Forces:  Max     0.000036305 RMS     0.000021038
 Search for a local minimum.
 Step number   1 out of a maximum of    2
 All quantities printed in internal units (Hartrees-Bohrs-Radians)
 Second derivative matrix not updated -- analytic derivatives used.
 The second derivative matrix:
                          R1        R2        R3        R4        R5
           R1           0.34583
           R2           0.00358   0.32383
           R3           0.00358   0.00494   0.32383
           R4           0.01212   0.01824   0.01824   0.35993
           R5          -0.00195  -0.00007  -0.00007  -0.00325   0.50611
           A1           0.00654   0.00820  -0.00562  -0.02792  -0.00057
           A2           0.00654  -0.00562   0.00820  -0.02792  -0.00057
           A3           0.00179  -0.00435  -0.00435   0.02994   0.00817
           A4          -0.00468   0.00888   0.00888  -0.02846   0.00120
           A5          -0.00450  -0.00270  -0.00434   0.02536  -0.00397
           A6          -0.00450  -0.00434  -0.00270   0.02536  -0.00397
           A7           0.00314  -0.00001  -0.00001   0.05220   0.01678
           D1           0.00000  -0.00545   0.00545   0.00000   0.00000
           D2           0.00659   0.00029  -0.00667  -0.00065   0.00227
           D3          -0.00659   0.00667  -0.00029   0.00065  -0.00227
                          A1        A2        A3        A4        A5
           A1           0.07417
           A2           0.00389   0.07417
           A3          -0.04008  -0.04008   0.14086
           A4           0.00470   0.00470  -0.00086   0.07663
           A5          -0.03633  -0.00142  -0.03009  -0.04193   0.13896
           A6          -0.00142  -0.03633  -0.03009  -0.04193  -0.03419
           A7          -0.00549  -0.00549   0.02186   0.00152  -0.00616
           D1          -0.02183   0.02183  -0.00000   0.00000  -0.01901
           D2           0.02271   0.00019   0.02382  -0.01861  -0.00376
           D3          -0.00019  -0.02271  -0.02382   0.01861   0.02136
                          A6        A7        D1        D2        D3
           A6           0.13896
           A7          -0.00616   0.19042
           D1           0.01901  -0.00000   0.02613
           D2          -0.02136   0.00375  -0.01138   0.02949
           D3           0.00376  -0.00375  -0.01138  -0.01469   0.02949
 ITU=  0
     Eigenvalues ---    0.00339   0.09261   0.09289   0.13540   0.16137
     Eigenvalues ---    0.18675   0.20578   0.32022   0.32539   0.34490
     Eigenvalues ---    0.40266   0.50745
 Angle between quadratic step and forces=  30.49 degrees.
 Linear search not attempted -- first point.
 Iteration  1 RMS(Cart)=  0.00014324 RMS(Int)=  0.00000002
 Iteration  2 RMS(Cart)=  0.00000001 RMS(Int)=  0.00000001
 ITry= 1 IFail=0 DXMaxC= 2.85D-04 DCOld= 1.00D+10 DXMaxT= 3.00D-01 DXLimC= 3.00D+00 Rises=F
 ClnCor:  largest displacement from symmetrization is 6.90D-09 for atom     4.
 Variable       Old X    -DE/DX   Delta X   Delta X   Delta X     New X
                                 (Linear)    (Quad)   (Total)
    R1        2.06619   0.00003   0.00000   0.00007   0.00007   2.06626
    R2        2.08108   0.00001   0.00000   0.00003   0.00003   2.08111
    R3        2.08108   0.00001   0.00000   0.00003   0.00003   2.08111
    R4        2.68082  -0.00002   0.00000   0.00002   0.00002   2.68084
    R5        1.83062  -0.00004   0.00000  -0.00007  -0.00007   1.83055
    A1        1.88598   0.00002   0.00000   0.00017   0.00017   1.88616
    A2        1.88598   0.00002   0.00000   0.00017   0.00017   1.88616
    A3        1.86222  -0.00001   0.00000  -0.00005  -0.00005   1.86217
    A4        1.89181   0.00001   0.00000   0.00005   0.00005   1.89185
    A5        1.96724  -0.00002   0.00000  -0.00016  -0.00016   1.96708
    A6        1.96724  -0.00002   0.00000  -0.00016  -0.00016   1.96708
    A7        1.87915  -0.00003   0.00000  -0.00015  -0.00015   1.87901
    D1        3.14159  -0.00000   0.00000  -0.00000   0.00000  -3.14159
    D2       -1.07422   0.00001   0.00000   0.00009   0.00009  -1.07413
    D3        1.07422  -0.00001   0.00000  -0.00009  -0.00009   1.07413
         Item               Value     Threshold  Converged?
 Maximum Force            0.000036     0.000450     YES
 RMS     Force            0.000021     0.000300     YES
 Maximum Displacement     0.000285     0.001800     YES
 RMS     Displacement     0.000143     0.001200     YES
 Predicted change in Energy=-1.417244D-08
 Optimization completed.
    -- Stationary point found.
                           ----------------------------
                           !   Optimized Parameters   !
                           ! (Angstroms and Degrees)  !
 --------------------------                            --------------------------
 ! Name  Definition              Value          Derivative Info.                !
 --------------------------------------------------------------------------------
 ! R1    R(1,2)                  1.0934         -DE/DX =    0.0                 !
 ! R2    R(1,3)                  1.1013         -DE/DX =    0.0                 !
 ! R3    R(1,4)                  1.1013         -DE/DX =    0.0                 !
 ! R4    R(1,5)                  1.4186         -DE/DX =    0.0                 !
 ! R5    R(5,6)                  0.9687         -DE/DX =    0.0                 !
 ! A1    A(2,1,3)              108.059          -DE/DX =    0.0                 !
 ! A2    A(2,1,4)              108.059          -DE/DX =    0.0                 !
 ! A3    A(2,1,5)              106.6973         -DE/DX =    0.0                 !
 ! A4    A(3,1,4)              108.3925         -DE/DX =    0.0                 !
 ! A5    A(3,1,5)              112.7145         -DE/DX =    0.0                 !
 ! A6    A(4,1,5)              112.7145         -DE/DX =    0.0                 !
 ! A7    A(1,5,6)              107.6676         -DE/DX =    0.0                 !
 ! D1    D(2,1,5,6)           -180.0            -DE/DX =    0.0                 !
 ! D2    D(3,1,5,6)            -61.5481         -DE/DX =    0.0                 !
 ! D3    D(4,1,5,6)             61.5481         -DE/DX =    0.0                 !
 --------------------------------------------------------------------------------
 GradGradGradGradGradGradGradGradGradGradGradGradGradGradGradGradGradGrad

 Leave Link  103 at Sun Oct 13 20:18:05 2019, MaxMem=  1342177280 cpu:              14.8 elap:               3.0
 (Enter /apps/cent7/gaussian/g16-A.03/g16-haswell/g16/l9999.exe)

 ----------------------------------------------------------------------

 Electric dipole moment (input orientation):
 (Debye = 10**-18 statcoulomb cm , SI units = C m)
                  (au)            (Debye)         (10**-30 SI)
   Tot        0.666508D+00      0.169409D+01      0.565089D+01
   x         -0.383326D+00     -0.974318D+00     -0.324998D+01
   y          0.321607D+00      0.817444D+00      0.272670D+01
   z          0.440298D+00      0.111913D+01      0.373300D+01

 Dipole polarizability, Alpha (input orientation).
 (esu units = cm**3 , SI units = C**2 m**2 J**-1)
 Alpha(0;0):
               (au)            (10**-24 esu)      (10**-40 SI)
   iso        0.157035D+02      0.232702D+01      0.258916D+01
   aniso      0.324237D+01      0.480470D+00      0.534595D+00
   xx         0.144684D+02      0.214399D+01      0.238551D+01
   yx        -0.296062D+00     -0.438719D-01     -0.488141D-01
   yy         0.169635D+02      0.251374D+01      0.279691D+01
   zx        -0.594054D+00     -0.880297D-01     -0.979463D-01
   zy        -0.122753D+01     -0.181901D+00     -0.202392D+00
   zz         0.156787D+02      0.232334D+01      0.258507D+01

 ----------------------------------------------------------------------

 Dipole orientation:
     6          0.65877919         -0.57757937          1.18527048
     1          0.88107477         -2.11196576         -0.18051289
     1          2.35759514         -0.53193308          2.38644895
     1         -0.98314401         -1.01592560          2.38644895
     8          0.33254637          1.67422972         -0.23238091
     1          0.13268473          3.05376672          0.95425395

 Electric dipole moment (dipole orientation):
 (Debye = 10**-18 statcoulomb cm , SI units = C m)
                  (au)            (Debye)         (10**-30 SI)
   Tot        0.666508D+00      0.169409D+01      0.565089D+01
   x          0.000000D+00      0.000000D+00      0.000000D+00
   y          0.000000D+00      0.000000D+00      0.000000D+00
   z          0.666508D+00      0.169409D+01      0.565089D+01

 Dipole polarizability, Alpha (dipole orientation).
 (esu units = cm**3 , SI units = C**2 m**2 J**-1)
 Alpha(0;0):
               (au)            (10**-24 esu)      (10**-40 SI)
   iso        0.157035D+02      0.232702D+01      0.258916D+01
   aniso      0.324237D+01      0.480470D+00      0.534595D+00
   xx         0.140760D+02      0.208584D+01      0.232081D+01
   yx        -0.525039D+00     -0.778027D-01     -0.865672D-01
   yy         0.176240D+02      0.261160D+01      0.290580D+01
   zx        -0.188421D-01     -0.279211D-02     -0.310664D-02
   zy         0.130057D+00      0.192724D-01      0.214435D-01
   zz         0.154106D+02      0.228362D+01      0.254087D+01

 ----------------------------------------------------------------------
 1\1\GINC-BROWN-FE02\Freq\RB3LYP\6-31G(d)\C1H4O1\FINEJ\13-Oct-2019\0\\#
 P Geom=AllCheck Guess=TCheck SCRF=Check GenChk RB3LYP/6-31G(d) Freq\\T
 itle Card Required\\0,1\C,-0.1326349183,0.0981189984,0.7623186579\H,0.
 2415436907,-0.9290820831,0.7443191357\H,0.2257415583,0.5758308931,1.68
 75916277\H,-1.2327720897,0.06018858,0.7944420044\O,0.3597061492,0.7318
 162789,-0.4075271\H,0.0358632221,1.6448035196,-0.4057866565\\Version=E
 S64L-G16RevA.03\State=1-A'\HF=-115.7144058\RMSD=7.074e-10\RMSF=1.704e-
 05\ZeroPoint=0.0514696\Thermal=0.0514696\Dipole=-0.3833262,0.3216072,0
 .4402983\DipoleDeriv=0.4456744,0.1124269,-0.0941615,0.1238599,0.423481
 6,-0.1997931,-0.1007621,-0.181123,0.6968725,0.0327464,0.0710439,0.0108
 095,0.0573842,-0.1338996,0.0208237,0.0186956,-0.0014826,0.0348086,-0.0
 084465,-0.0605989,-0.0566994,-0.0510879,-0.0287643,-0.0856236,-0.05013
 34,-0.037838,-0.2175803,-0.2465314,-0.0464856,0.0444104,-0.0141196,0.0
 190533,0.0243057,0.0136674,0.0449053,-0.027313,-0.5242934,-0.1763993,0
 .0442638,-0.199383,-0.4062871,0.2371083,0.057533,0.1995759,-0.7687242,
 0.3008505,0.100013,0.0513773,0.0833464,0.1264161,0.0031791,0.0609995,-
 0.0240376,0.2819364\Polar=14.4683519,-0.2960622,16.9635393,-0.5940541,
 -1.2275282,15.6786812\Quadrupole=-0.7742338,1.7166236,-0.9423898,-0.38
 75205,0.4422968,-0.7279533\PG=CS [SG(C1H2O1),X(H2)]\NImag=0\\0.5602526
 2,-0.03077912,0.59171032,0.02134897,0.03336624,0.50831822,-0.08867628,
 0.09448416,0.00268168,0.08735670,0.08830927,-0.28296571,-0.01180674,-0
 .09522433,0.31058175,0.00624663,-0.02189033,-0.05119301,-0.00793446,0.
 00438548,0.05925741,-0.08632298,-0.04132741,-0.07104496,0.00527440,0.0
 0604466,0.01041955,0.08390663,-0.03955801,-0.11038336,-0.09436416,-0.0
 1241055,-0.01258045,-0.02498456,0.04548158,0.10900605,-0.07016495,-0.0
 9209331,-0.20809177,-0.00086923,-0.00215055,0.00091906,0.07270557,0.09
 786506,0.24151480,-0.29575890,-0.00057830,-0.00716466,-0.01044166,0.00
 028213,-0.00178084,-0.01095377,0.00128124,-0.00227215,0.32376255,0.000
 13712,-0.05576569,-0.00212961,0.03141237,0.00283976,0.00094043,-0.0168
 4734,0.00131673,-0.00231699,0.00646636,0.05143955,-0.00947923,-0.00034
 275,-0.05327353,0.00219025,-0.00119523,0.00121492,-0.02722499,-0.00003
 741,0.00202709,-0.00269352,-0.00461132,0.05922538,-0.09201037,-0.00286
 587,0.04899459,0.00649082,0.00217897,-0.00893718,0.00818632,0.00438755
 ,0.00011680,-0.00733914,-0.01971618,0.03740265,0.15634230,-0.02786800,
 -0.12277671,0.08000736,-0.01545540,-0.01842106,0.03690616,0.00595080,0
 .01058912,-0.00018941,-0.00768561,-0.00081298,0.00800330,-0.12670244,0
 .56953572,0.06342907,0.03917888,-0.18921962,0.00124368,0.00810923,-0.0
 0492431,0.01624589,0.02120446,-0.03715218,0.01342544,0.00880814,-0.010
 22461,-0.10632186,-0.09509404,0.27496398,0.00251591,-0.01893346,0.0051
 8438,-0.00000397,-0.00159070,0.00198630,-0.00009059,0.00081819,0.00048
 396,0.00073092,-0.00145233,-0.00019516,-0.07166994,0.17176065,0.011977
 78,0.06851766,0.00975874,-0.01981885,-0.00507309,-0.00280626,0.0005457
 1,0.00464284,0.00069772,0.00205190,-0.00111479,0.00023419,0.00098263,-
 0.00181659,0.14271797,-0.43811409,0.01779333,-0.15060236,0.45435270,-0
 .01138050,0.04178127,-0.00654030,0.00268808,0.00265782,-0.00527407,-0.
 00110106,0.00031662,0.00078300,0.00048573,-0.00069064,0.00103076,0.028
 74499,-0.02963337,-0.03344326,-0.01943725,-0.01443169,0.04344388\\0.00
 000685,0.00000679,-0.00001510,-0.00001814,0.00002506,0.00001516,-0.000
 00723,-0.00002541,0.00000155,0.00001312,-0.00001822,0.00001402,0.00001
 032,-0.00002519,-0.00000231,-0.00000491,0.00003697,-0.00001332\\\@


 What some people mistake for the high cost
 of living is really the cost of living high.
                              -- Doug Larson
 Job cpu time:       0 days  0 hours  3 minutes 28.9 seconds.
 Elapsed time:       0 days  0 hours  0 minutes 42.8 seconds.
 File lengths (MBytes):  RWF=      6 Int=      0 D2E=      0 Chk=      1 Scr=      1
 Normal termination of Gaussian 16 at Sun Oct 13 20:18:05 2019.
