Title Card Required                                                     
Freq      RB3LYP                                                      6-31G(d)            
Number of atoms                            I                6
Info1-9                                    I   N=           9
          22          22        1002           0           0         100
           6          18        -502
Full Title                                 C   N=           2
Title Card Required     
Route                                      C   N=           6
#P opt freq b3lyp/6-31g(d) geom=connectivity temperature=0.0
01          
Charge                                     I                0
Multiplicity                               I                1
Number of electrons                        I               18
Number of alpha electrons                  I                9
Number of beta electrons                   I                9
Number of basis functions                  I               38
Number of independent functions            I               38
Number of point charges in /Mol/           I                0
Number of translation vectors              I                0
Atomic numbers                             I   N=           6
           6           1           1           1           8           1
Nuclear charges                            R   N=           6
  6.00000000E+00  1.00000000E+00  1.00000000E+00  1.00000000E+00  8.00000000E+00
  1.00000000E+00
Current cartesian coordinates              R   N=          18
 -8.85749868E-02  1.24900898E+00 -1.76225940E-16 -2.06764168E+00  1.84265546E+00
 -1.23845588E-15  8.25995619E-01  2.05259646E+00  1.68780826E+00  8.25995619E-01
  2.05259646E+00 -1.68780826E+00 -8.85749868E-02 -1.43181318E+00 -1.63360217E-17
  1.65570026E+00 -1.98739678E+00  7.94429135E-16
Number of symbols in /Mol/                 I                0
Force Field                                I                0
Atom Types                                 C   N=           6
                                                            
            
Int Atom Types                             I   N=           6
           0           0           0           0           0           0
MM charges                                 R   N=           6
  0.00000000E+00  0.00000000E+00  0.00000000E+00  0.00000000E+00  0.00000000E+00
  0.00000000E+00
Integer atomic weights                     I   N=           6
          12           1           1           1          16           1
Real atomic weights                        R   N=           6
  1.20000000E+01  1.00782504E+00  1.00782504E+00  1.00782504E+00  1.59949146E+01
  1.00782504E+00
Atom fragment info                         I   N=           6
           0           0           0           0           0           0
Atom residue num                           I   N=           6
           0           0           0           0           0           0
Nuclear spins                              I   N=           6
           0           1           1           1           0           1
Nuclear ZEff                               R   N=           6
 -3.60000000E+00 -1.00000000E+00 -1.00000000E+00 -1.00000000E+00 -5.60000000E+00
 -1.00000000E+00
Nuclear ZNuc                               R   N=           6
  6.00000000E+00  1.00000000E+00  1.00000000E+00  1.00000000E+00  8.00000000E+00
  1.00000000E+00
Nuclear QMom                               R   N=           6
  0.00000000E+00  0.00000000E+00  0.00000000E+00  0.00000000E+00  0.00000000E+00
  0.00000000E+00
Nuclear GFac                               R   N=           6
  0.00000000E+00  2.79284600E+00  2.79284600E+00  2.79284600E+00  0.00000000E+00
  2.79284600E+00
MicOpt                                     I   N=           6
          -1          -1          -1          -1          -1          -1
Number of residues                         I                0
Number of secondary structures             I                0
Redundant internal dimensions              I   N=           4
          15           5           7           3
Redundant internal coordinate indices      I   N=          60
           1           2           0           0           1           3
           0           0           1           4           0           0
           1           5           0           0           5           6
           0           0           2           1           3           0
           2           1           4           0           2           1
           5           0           3           1           4           0
           3           1           5           0           4           1
           5           0           1           5           6           0
           2           1           5           6           3           1
           5           6           4           1           5           6
Redundant internal coordinates             R   N=          15
  2.06618517E+00  2.08107879E+00  2.08107879E+00  2.68082217E+00  1.83061991E+00
  1.88598500E+00  1.88598500E+00  1.86221904E+00  1.89180638E+00  1.96723953E+00
  1.96723953E+00  1.87915463E+00  3.14159265E+00 -1.07421732E+00  1.07421732E+00
ZRed-IntVec                                I   N=          15
           0           0           0           0           0           0
           0           0           0           0           0           0
           0           0           0
ZRed-FPVec                                 R   N=          15
  0.00000000E+00  0.00000000E+00  0.00000000E+00  0.00000000E+00  0.00000000E+00
  0.00000000E+00  0.00000000E+00  0.00000000E+00  0.00000000E+00  0.00000000E+00
  0.00000000E+00  0.00000000E+00  0.00000000E+00  0.00000000E+00  0.00000000E+00
ZRed-Constraint1                           R   N=          15
  2.06618517E+00  2.08107879E+00  2.08107879E+00  2.68082217E+00  1.83061991E+00
  1.88598500E+00  1.88598500E+00  1.86221904E+00  1.89180638E+00  1.96723953E+00
  1.96723953E+00  1.87915463E+00 -3.14159264E+00 -1.07421732E+00  1.07421732E+00
ZRed-Constraint2                           R   N=          15
  2.02200695E+00  2.02200695E+00  2.02200696E+00  2.70230836E+00  1.81413706E+00
  1.91063323E+00  1.91063324E+00  1.91063324E+00  1.91063324E+00  1.91063324E+00
  1.91063324E+00  1.91063324E+00  3.14159265E+00 -1.04719755E+00  1.04719755E+00
SymInf integers                            I   N=          26
           2           2           1           1           1           1
           1          -1           0           0           0           0
           0           0           0           0           0           0
           0           0           0           0           0           0
           0           0
RotTr to input orientation                 R   N=          12
 -4.61390422E-01  8.46837967E-01  2.64545528E-01 -3.47053896E-01 -4.46696659E-01
  8.24630637E-01  8.16500136E-01  2.88665121E-01  4.99999976E-01  1.41962112E-01
  8.18354836E-01  4.34034528E-01
Number of contracted shells                I               16
Number of primitive shells                 I               38
Pure/Cartesian d shells                    I                1
Pure/Cartesian f shells                    I                0
Highest angular momentum                   I                2
Largest degree of contraction              I                6
Shell types                                I   N=          16
           0          -1          -1           2           0           0
           0           0           0           0           0          -1
          -1           2           0           0
Number of primitives per shell             I   N=          16
           6           3           1           1           3           1
           3           1           3           1           6           3
           1           1           3           1
Shell to atom map                          I   N=          16
           1           1           1           1           2           2
           3           3           4           4           5           5
           5           5           6           6
Primitive exponents                        R   N=          38
  3.04752488E+03  4.57369518E+02  1.03948685E+02  2.92101553E+01  9.28666296E+00
  3.16392696E+00  7.86827235E+00  1.88128854E+00  5.44249258E-01  1.68714478E-01
  8.00000000E-01  1.87311370E+01  2.82539436E+00  6.40121692E-01  1.61277759E-01
  1.87311370E+01  2.82539436E+00  6.40121692E-01  1.61277759E-01  1.87311370E+01
  2.82539436E+00  6.40121692E-01  1.61277759E-01  5.48467166E+03  8.25234946E+02
  1.88046958E+02  5.29645000E+01  1.68975704E+01  5.79963534E+00  1.55396162E+01
  3.59993359E+00  1.01376175E+00  2.70005823E-01  8.00000000E-01  1.87311370E+01
  2.82539436E+00  6.40121692E-01  1.61277759E-01
Contraction coefficients                   R   N=          38
  1.83473713E-03  1.40373228E-02  6.88426223E-02  2.32184443E-01  4.67941348E-01
  3.62311985E-01 -1.19332420E-01 -1.60854152E-01  1.14345644E+00  1.00000000E+00
  1.00000000E+00  3.34946043E-02  2.34726953E-01  8.13757326E-01  1.00000000E+00
  3.34946043E-02  2.34726953E-01  8.13757326E-01  1.00000000E+00  3.34946043E-02
  2.34726953E-01  8.13757326E-01  1.00000000E+00  1.83107443E-03  1.39501722E-02
  6.84450781E-02  2.32714336E-01  4.70192898E-01  3.58520853E-01 -1.10777550E-01
 -1.48026263E-01  1.13076702E+00  1.00000000E+00  1.00000000E+00  3.34946043E-02
  2.34726953E-01  8.13757326E-01  1.00000000E+00
P(S=P) Contraction coefficients            R   N=          38
  0.00000000E+00  0.00000000E+00  0.00000000E+00  0.00000000E+00  0.00000000E+00
  0.00000000E+00  6.89990666E-02  3.16423961E-01  7.44308291E-01  1.00000000E+00
  0.00000000E+00  0.00000000E+00  0.00000000E+00  0.00000000E+00  0.00000000E+00
  0.00000000E+00  0.00000000E+00  0.00000000E+00  0.00000000E+00  0.00000000E+00
  0.00000000E+00  0.00000000E+00  0.00000000E+00  0.00000000E+00  0.00000000E+00
  0.00000000E+00  0.00000000E+00  0.00000000E+00  0.00000000E+00  7.08742682E-02
  3.39752839E-01  7.27158577E-01  1.00000000E+00  0.00000000E+00  0.00000000E+00
  0.00000000E+00  0.00000000E+00  0.00000000E+00
Coordinates of each shell                  R   N=          48
 -8.85749868E-02  1.24900898E+00 -6.52036326E-17 -8.85749868E-02  1.24900898E+00
 -6.52036326E-17 -8.85749868E-02  1.24900898E+00 -6.52036326E-17 -8.85749868E-02
  1.24900898E+00 -6.52036326E-17 -2.06764168E+00  1.84265546E+00 -7.94366667E-16
 -2.06764168E+00  1.84265546E+00 -7.94366667E-16  8.25995619E-01  2.05259646E+00
  1.68780826E+00  8.25995619E-01  2.05259646E+00  1.68780826E+00  8.25995619E-01
  2.05259646E+00 -1.68780826E+00  8.25995619E-01  2.05259646E+00 -1.68780826E+00
 -8.85749868E-02 -1.43181318E+00  9.46862754E-17 -8.85749868E-02 -1.43181318E+00
  9.46862754E-17 -8.85749868E-02 -1.43181318E+00  9.46862754E-17 -8.85749868E-02
 -1.43181318E+00  9.46862754E-17  1.65570026E+00 -1.98739678E+00  5.72384525E-16
  1.65570026E+00 -1.98739678E+00  5.72384525E-16
Num ILSW                                   I              100
ILSW                                       I   N=         100
           0           1           0           0           2           0
           0           0           0           0         402          -1
           5           0           0           0           2           0
           0           0           0           0           1           0
           1           0           0           0           0           0
           0           0      100000           0          -1           0
           0           0           0           0           0           0
           0           0           0           1           0           0
           0 -2000000000           1           0           0           0
           0           0           4          52           0           0
           0           0           5           0           0           0
           0           0           0           6           0           1
           0           0           0           0           0           0
           0           0           0           0           0           0
           0           0           0           0           0           0
           0           0           0           0           0           0
           0           0           0           0
Num RLSW                                   I               52
RLSW                                       R   N=          52
  8.00000000E-01  7.20000000E-01  1.00000000E+00  8.10000000E-01  2.00000000E-01
  0.00000000E+00  0.00000000E+00  1.00000000E+00  0.00000000E+00  0.00000000E+00
  0.00000000E+00  0.00000000E+00  1.00000000E+00  0.00000000E+00  0.00000000E+00
  0.00000000E+00  0.00000000E+00  1.00000000E+00  0.00000000E+00  0.00000000E+00
  0.00000000E+00  0.00000000E+00  1.00000000E+00  0.00000000E+00  0.00000000E+00
  0.00000000E+00  0.00000000E+00  1.00000000E+00  0.00000000E+00  0.00000000E+00
  0.00000000E+00  0.00000000E+00  1.00000000E+00  0.00000000E+00  0.00000000E+00
  0.00000000E+00  0.00000000E+00  0.00000000E+00  1.00000000E+00  1.00000000E+00
  0.00000000E+00  1.00000000E+00  0.00000000E+00  0.00000000E+00  0.00000000E+00
  0.00000000E+00  0.00000000E+00  0.00000000E+00  0.00000000E+00  0.00000000E+00
  0.00000000E+00  0.00000000E+00
MxBond                                     I                4
NBond                                      I   N=           6
           4           1           1           1           2           1
IBond                                      I   N=          24
           2           3           4           5           1           0
           0           0           1           0           0           0
           1           0           0           0           1           6
           0           0           5           0           0           0
RBond                                      R   N=          24
  1.00000000E+00  1.00000000E+00  1.00000000E+00  1.00000000E+00  1.00000000E+00
  0.00000000E+00  0.00000000E+00  0.00000000E+00  1.00000000E+00  0.00000000E+00
  0.00000000E+00  0.00000000E+00  1.00000000E+00  0.00000000E+00  0.00000000E+00
  0.00000000E+00  1.00000000E+00  1.00000000E+00  0.00000000E+00  0.00000000E+00
  1.00000000E+00  0.00000000E+00  0.00000000E+00  0.00000000E+00
Virial Ratio                               R      2.008826461411841E+00
SCF Energy                                 R     -1.157144057893219E+02
Total Energy                               R     -1.157144057893219E+02
RMS Force                                  R      1.703542033852042E-05
RMS Density                                R      7.073501947313451E-10
NImag                                      I                0
Job Status                                 I                1
Nuclear derivative order                   I                2
External E-field                           R   N=          35
  0.00000000E+00  0.00000000E+00  0.00000000E+00  0.00000000E+00  0.00000000E+00
  0.00000000E+00  0.00000000E+00  0.00000000E+00  0.00000000E+00  0.00000000E+00
  0.00000000E+00  0.00000000E+00  0.00000000E+00  0.00000000E+00  0.00000000E+00
  0.00000000E+00  0.00000000E+00  0.00000000E+00  0.00000000E+00  0.00000000E+00
  0.00000000E+00  0.00000000E+00  0.00000000E+00  0.00000000E+00  0.00000000E+00
  0.00000000E+00  0.00000000E+00  0.00000000E+00  0.00000000E+00  0.00000000E+00
  0.00000000E+00  0.00000000E+00  0.00000000E+00  0.00000000E+00  0.00000000E+00
IOpCl                                      I                0
IROHF                                      I                0
Alpha Orbital Energies                     R   N=          38
 -1.91401353E+01 -1.02246935E+01 -1.01048811E+00 -6.78263365E-01 -5.02322829E-01
 -4.34004806E-01 -4.19179257E-01 -3.30258627E-01 -2.64542249E-01  7.52457470E-02
  1.30739273E-01  1.66705719E-01  1.75169544E-01  2.05908111E-01  5.34237197E-01
  5.67245794E-01  5.77427529E-01  7.86342366E-01  8.48783960E-01  8.69120829E-01
  9.01735475E-01  9.53811579E-01  9.77261305E-01  1.02227291E+00  1.11448711E+00
  1.46266167E+00  1.50276777E+00  1.58518786E+00  1.74376220E+00  2.03910447E+00
  2.11371647E+00  2.12818655E+00  2.34972687E+00  2.40349298E+00  2.44597113E+00
  2.79222382E+00  3.69731241E+00  4.21357203E+00
Alpha MO coefficients                      R   N=        1444
  6.38583897E-06  2.58120054E-04 -6.82399101E-05 -3.67598671E-04  0.00000000E+00
 -1.69713762E-03  4.08213367E-04  9.15657931E-04  0.00000000E+00 -1.16772888E-05
  2.77232195E-04  2.94465595E-05 -1.38111466E-06  0.00000000E+00  0.00000000E+00
  1.29218366E-04  2.09857692E-04  4.19469671E-05 -3.73529811E-05  4.19469671E-05
 -3.73529811E-05  9.92809211E-01  2.60624542E-02  9.06694864E-04  5.40074597E-04
  0.00000000E+00  1.11130378E-02 -1.40155634E-04  3.33778195E-04  0.00000000E+00
 -7.91951865E-03 -7.97420819E-03 -7.87507496E-03 -1.88851838E-05  0.00000000E+00
  0.00000000E+00  3.98113137E-04 -1.07493148E-03  9.92897639E-01  4.89713318E-02
  3.19011464E-05 -5.74085130E-04  0.00000000E+00 -1.35877811E-02  1.16125364E-04
 -4.38697602E-04  0.00000000E+00 -9.15041333E-03 -8.92560177E-03 -9.16517700E-03
 -9.85700871E-06  0.00000000E+00  0.00000000E+00 -1.31110303E-04  2.67796445E-03
 -1.40187499E-04  2.60374350E-03 -1.40187499E-04  2.60374350E-03 -1.04341740E-04
 -1.53255540E-04  3.59895305E-05 -1.36821955E-04  0.00000000E+00  1.78524170E-03
 -1.64387112E-04  8.68285477E-05  0.00000000E+00 -6.54531177E-05 -7.93971596E-04
 -1.92660084E-05  1.99212915E-05  0.00000000E+00  0.00000000E+00  3.62933185E-06
  3.84759300E-04 -7.42657265E-02  1.38902846E-01  5.58518561E-03 -1.03133602E-01
  0.00000000E+00  6.18893622E-02  6.87343134E-03 -1.71757411E-03  0.00000000E+00
 -7.09168482E-03  2.01493925E-02 -8.00312077E-03 -2.18284157E-03  0.00000000E+00
  0.00000000E+00  2.52413165E-02  6.56193101E-03  2.41886326E-02  6.20536302E-04
  2.41886326E-02  6.20536302E-04 -2.02548518E-01  4.51732375E-01  9.37094153E-02
  7.03025672E-02  0.00000000E+00  4.26180204E-01  4.50679127E-02  3.22809246E-02
  0.00000000E+00  1.59718744E-02  8.86722779E-03 -1.01816262E-02 -3.87112746E-03
  0.00000000E+00  0.00000000E+00  1.30671608E-01  1.03489263E-03 -1.79928445E-01
  3.61307745E-01 -2.32489678E-02  6.69947038E-02  0.00000000E+00  3.30741873E-01
  1.04623384E-03  3.77610994E-02  0.00000000E+00  3.65332774E-03 -1.10772869E-02
  1.98075291E-03  3.67247746E-03  0.00000000E+00  0.00000000E+00  1.42036974E-01
  4.30965529E-02  1.31741435E-01  3.54669350E-02  1.31741435E-01  3.54669350E-02
  5.96445006E-02 -1.37066624E-01 -1.15181750E-01  1.74098760E-01  0.00000000E+00
 -1.72257644E-01 -5.51792224E-02  8.41030781E-02  0.00000000E+00 -1.58364190E-02
  1.74783112E-02  1.54755247E-03  7.95448550E-03  0.00000000E+00  0.00000000E+00
 -1.19104756E-01 -3.59951827E-02 -2.61978096E-02  4.89363517E-02  1.91927020E-01
  2.51038914E-01  0.00000000E+00  6.66036347E-02  8.98695535E-02  8.99851746E-02
  0.00000000E+00  4.25250159E-03 -2.15002813E-02  1.72472606E-02 -5.82953417E-03
  0.00000000E+00  0.00000000E+00 -2.87512716E-02 -1.44925792E-02  1.18382611E-01
  7.20686858E-02  1.18382611E-01  7.20686858E-02  4.04854858E-02 -9.31527877E-02
  3.47220483E-01 -2.48038252E-01  0.00000000E+00 -1.44883829E-01  1.82042492E-01
 -1.14169864E-01  0.00000000E+00  2.81915218E-02 -1.14336343E-02 -1.84012678E-03
  4.05407057E-04  0.00000000E+00  0.00000000E+00  2.07659094E-01  1.30215530E-01
  0.00000000E+00  0.00000000E+00  0.00000000E+00  0.00000000E+00  4.24400380E-01
  0.00000000E+00  0.00000000E+00  0.00000000E+00  1.84137369E-01  0.00000000E+00
  0.00000000E+00  0.00000000E+00  0.00000000E+00  1.77303623E-02  7.05438345E-03
  0.00000000E+00  0.00000000E+00  2.02689161E-01  1.63685945E-01 -2.02689161E-01
 -1.63685945E-01  0.00000000E+00  0.00000000E+00  0.00000000E+00  0.00000000E+00
  2.54094492E-01  0.00000000E+00  0.00000000E+00  0.00000000E+00  1.60501449E-01
  0.00000000E+00  0.00000000E+00  0.00000000E+00  0.00000000E+00  1.15095032E-02
  1.43567609E-02  0.00000000E+00  0.00000000E+00 -5.32131835E-03  1.12954282E-02
  3.35643167E-01 -2.41072333E-01  0.00000000E+00  1.53196609E-02  1.74677619E-01
 -9.88496274E-02  0.00000000E+00 -2.38702689E-02  1.85181896E-02  1.26544237E-03
  6.33245806E-03  0.00000000E+00  0.00000000E+00 -2.36514827E-01 -1.77082294E-01
  3.73381475E-02  2.24705480E-02  3.73381475E-02  2.24705480E-02  3.02883574E-02
 -5.68954754E-02  8.87797750E-02  3.51807620E-01  0.00000000E+00 -1.36036087E-01
  5.81090785E-02  2.05366569E-01  0.00000000E+00  2.98409730E-04  1.23714064E-02
  7.77027090E-04  2.62803775E-02  0.00000000E+00  0.00000000E+00 -4.62535936E-02
 -4.81729800E-02 -1.38707033E-02  3.42853348E-02 -2.56807871E-01 -1.46122798E-01
  0.00000000E+00  3.06328070E-02 -8.26989384E-02 -4.66242976E-02  0.00000000E+00
  1.02224216E-02  3.41255069E-03 -1.62524809E-02 -2.57879688E-02  0.00000000E+00
  0.00000000E+00  1.74426656E-01  1.76157060E-01 -1.13089997E-01 -1.33425131E-01
 -1.13089997E-01 -1.33425131E-01  6.72809129E-02 -1.31380330E-01  3.98022165E-01
  2.44661447E-01  0.00000000E+00 -3.28748554E-01  2.68670446E-01  1.75465477E-01
  0.00000000E+00  3.16557688E-02  9.71483207E-03 -1.65172321E-04  1.19925705E-02
  0.00000000E+00  0.00000000E+00  1.51443541E-01  1.21318484E-01  0.00000000E+00
  0.00000000E+00  0.00000000E+00  0.00000000E+00 -1.77625476E-01  0.00000000E+00
  0.00000000E+00  0.00000000E+00 -2.92815976E-02  0.00000000E+00  0.00000000E+00
  0.00000000E+00  0.00000000E+00 -1.06166693E-02 -3.41702425E-02  0.00000000E+00
  0.00000000E+00 -1.47349932E-01 -1.92337851E-01  1.47349932E-01  1.92337851E-01
  0.00000000E+00  0.00000000E+00  0.00000000E+00  0.00000000E+00  5.96148166E-01
  0.00000000E+00  0.00000000E+00  0.00000000E+00  4.64105991E-01  0.00000000E+00
  0.00000000E+00  0.00000000E+00  0.00000000E+00  2.39787057E-02  9.25866310E-03
  0.00000000E+00  0.00000000E+00  3.30167213E-02 -3.44120413E-02 -3.15984730E-02
 -2.01807189E-01  0.00000000E+00 -6.28467838E-01 -2.05950945E-02 -5.71716413E-01
  0.00000000E+00  1.59786435E-02 -8.24123105E-03  9.07371273E-03  6.62658549E-03
  0.00000000E+00  0.00000000E+00  6.93645228E-03  3.04776771E-01  8.76104021E-03
  4.61213583E-01  8.76104021E-03  4.61213583E-01  9.01636996E-02 -1.11873389E-01
 -2.56593715E-01 -1.04201342E-02  0.00000000E+00 -1.12388261E+00 -4.56246857E-01
 -3.73684145E-02  0.00000000E+00  2.38991911E-02  3.60056265E-02  4.87760202E-02
 -4.97291366E-03  0.00000000E+00  0.00000000E+00  1.18709726E-01  1.22365808E+00
 -1.54460717E-01  2.10643031E-01  5.94074379E-03  7.27064924E-02  0.00000000E+00
  2.39819918E+00 -3.51835666E-03  1.82921165E-01  0.00000000E+00 -2.68952350E-03
 -1.66428984E-02 -8.47281204E-03  3.25353554E-03  0.00000000E+00  0.00000000E+00
 -2.50600604E-02 -1.05613852E+00 -2.88659432E-02 -1.09786053E+00 -2.88659432E-02
 -1.09786053E+00  5.06278583E-02 -4.06464656E-02 -1.20951222E-01 -9.55618236E-02
  0.00000000E+00 -7.08934882E-01 -1.99294277E-01 -2.23949187E-01  0.00000000E+00
  1.87936188E-02  3.49260786E-02  2.87060025E-02 -6.66367941E-03  0.00000000E+00
  0.00000000E+00  6.03301495E-02  5.14308768E-01 -1.35333669E-02  1.15999937E-02
  4.16765378E-01 -8.72130676E-02  0.00000000E+00  1.02553792E-01  1.26635945E+00
 -3.67872101E-01  0.00000000E+00  2.05963884E-02 -1.30774776E-02 -7.89008507E-03
 -5.48339320E-03  0.00000000E+00  0.00000000E+00  1.15324573E-01  1.75526173E+00
 -4.21985502E-02 -7.16391035E-01 -4.21985502E-02 -7.16391035E-01  1.04807793E-02
 -1.86892996E-02 -1.75919864E-02 -1.47694392E-01  0.00000000E+00 -1.49968604E-01
 -9.01792054E-02 -2.56796174E-01  0.00000000E+00  3.85480360E-03 -2.26427769E-03
 -8.30299470E-05  1.13165359E-02  0.00000000E+00  0.00000000E+00 -4.59178324E-02
 -2.86822608E-01  0.00000000E+00  0.00000000E+00  0.00000000E+00  0.00000000E+00
 -4.61208032E-01  0.00000000E+00  0.00000000E+00  0.00000000E+00 -1.31813633E+00
  0.00000000E+00  0.00000000E+00  0.00000000E+00  0.00000000E+00  1.48529937E-02
  1.10128434E-03  0.00000000E+00  0.00000000E+00  7.23370962E-02  1.51918055E+00
 -7.23370962E-02 -1.51918055E+00  0.00000000E+00  0.00000000E+00  0.00000000E+00
  0.00000000E+00  1.05183412E-01  0.00000000E+00  0.00000000E+00  0.00000000E+00
  2.38291410E-01  0.00000000E+00  0.00000000E+00  0.00000000E+00  0.00000000E+00
  1.44099854E-02 -9.78550755E-03  0.00000000E+00  0.00000000E+00  5.99909675E-02
 -8.83600738E-02  1.03465184E-01  3.10374352E-01  0.00000000E+00 -7.26861369E-01
  4.71006226E-01  1.33193845E+00  0.00000000E+00 -9.94149768E-03  2.84578169E-02
 -2.64632514E-02  4.37259914E-03  0.00000000E+00  0.00000000E+00 -1.78919981E-02
  5.09138440E-01 -6.16907342E-02 -4.38050411E-01 -6.16907342E-02 -4.38050411E-01
 -4.76894159E-02  5.70031807E-02 -1.82015366E-01  3.61968550E-01  0.00000000E+00
  6.72199584E-01 -3.64080914E-01  8.13448210E-01  0.00000000E+00 -2.50599906E-02
 -2.70634005E-03 -2.43901901E-02  1.05170941E-02  0.00000000E+00  0.00000000E+00
  6.06388997E-02  8.66338384E-01 -3.35322360E-02  3.66854654E-01 -1.21404880E-01
 -9.39468048E-01  0.00000000E+00 -4.51867354E-01  3.07174202E-01  1.44489509E+00
  0.00000000E+00  4.32915087E-02 -5.77250050E-02 -4.69158361E-03 -1.45872509E-02
  0.00000000E+00  0.00000000E+00  3.56456871E-02 -4.44678240E-03 -1.56849822E-01
 -1.13848869E-01 -1.56849822E-01 -1.13848869E-01  6.21579797E-03 -1.62025528E-01
 -5.34509555E-02 -2.96284890E-01  0.00000000E+00  8.06688519E-01 -2.57514977E-02
  2.19215559E-01  0.00000000E+00 -8.92779351E-02  1.13897734E-01 -8.37920202E-02
 -1.35103738E-02  0.00000000E+00  0.00000000E+00 -9.66409289E-02  2.37524921E-01
  9.66897384E-03 -9.74907386E-02 -7.47670560E-01  2.39136427E-01  0.00000000E+00
  4.44225202E-02  1.67948501E+00 -3.14210217E-01  0.00000000E+00  8.66620125E-02
 -1.19063729E-02 -8.68274850E-02 -3.21305044E-02  0.00000000E+00  0.00000000E+00
  4.75313948E-01  4.47126678E-01 -1.87892811E-01 -1.57877498E-01 -1.87892811E-01
 -1.57877498E-01 -1.61327175E-02  1.81232411E-01 -3.25208385E-02 -4.45168623E-02
  0.00000000E+00 -2.31778574E-01 -1.83527316E-01  2.17460367E-02  0.00000000E+00
  5.10700350E-02  1.96520013E-02  5.35961176E-02  1.15800109E-02  0.00000000E+00
  0.00000000E+00 -1.04905802E-01 -1.89653063E-01  0.00000000E+00  0.00000000E+00
  0.00000000E+00  0.00000000E+00 -7.36543332E-01  0.00000000E+00  0.00000000E+00
  0.00000000E+00  1.73261906E+00  0.00000000E+00  0.00000000E+00  0.00000000E+00
  0.00000000E+00 -1.01625259E-01 -3.86720817E-02  0.00000000E+00  0.00000000E+00
 -3.97959802E-01 -4.06976029E-01  3.97959802E-01  4.06976029E-01  0.00000000E+00
  0.00000000E+00  0.00000000E+00  0.00000000E+00 -2.32053991E-01  0.00000000E+00
  0.00000000E+00  0.00000000E+00 -1.65144191E-01  0.00000000E+00  0.00000000E+00
  0.00000000E+00  0.00000000E+00 -1.85455404E-02 -5.39111610E-03  0.00000000E+00
  0.00000000E+00  4.01381995E-03  1.41047389E-02 -4.62774557E-01 -1.17105645E-01
  0.00000000E+00 -2.14043894E-01  9.51539564E-01  1.05257244E-01  0.00000000E+00
 -1.99794726E-02 -7.79052351E-02  6.43991329E-02  1.31163738E-01  0.00000000E+00
  0.00000000E+00 -2.98050035E-01  9.81542844E-01  3.40530608E-01 -5.14616704E-01
  3.40530608E-01 -5.14616704E-01  2.14698705E-02 -1.71395251E-02 -3.03777561E-01
 -1.62819047E-01  0.00000000E+00  5.02705224E-02 -1.48467900E-01  3.64715916E-01
  0.00000000E+00  1.35893265E-01  1.23793599E-02 -6.13816772E-02 -1.18823145E-01
  0.00000000E+00  0.00000000E+00  8.88853854E-01 -6.39788025E-01  0.00000000E+00
  0.00000000E+00  0.00000000E+00  0.00000000E+00  8.30533000E-01  0.00000000E+00
  0.00000000E+00  0.00000000E+00 -1.43362769E+00  0.00000000E+00  0.00000000E+00
  0.00000000E+00  0.00000000E+00 -1.22470068E-01 -1.43461675E-01  0.00000000E+00
  0.00000000E+00 -6.77456918E-01  1.45560981E+00  6.77456918E-01 -1.45560981E+00
  0.00000000E+00  0.00000000E+00  0.00000000E+00  0.00000000E+00 -2.19898290E-01
  0.00000000E+00  0.00000000E+00  0.00000000E+00  3.23731537E-01  0.00000000E+00
  0.00000000E+00  0.00000000E+00  0.00000000E+00  1.26076323E-02  8.79741471E-02
  0.00000000E+00  0.00000000E+00 -1.72671684E-02  7.21059474E-03 -6.39689248E-01
 -2.85121457E-02  0.00000000E+00  2.79816522E-01  1.13616806E+00  8.09788013E-02
  0.00000000E+00 -1.27844110E-01  8.48978164E-02  6.01385757E-02  6.33487791E-02
  0.00000000E+00  0.00000000E+00 -7.35378547E-01  1.28597143E+00  1.19233490E-01
 -6.14435083E-01  1.19233490E-01 -6.14435083E-01 -3.26829010E-03 -2.10118724E-01
  5.50187530E-01  2.03676171E-01  0.00000000E+00  2.94942796E-01 -5.20471080E-01
 -3.98278132E-01  0.00000000E+00 -1.37600411E-01 -6.52005684E-02 -5.17229948E-02
 -1.77695180E-02  0.00000000E+00  0.00000000E+00 -3.23369768E-01  2.09642869E-01
 -9.46920733E-02  3.97599725E-01  4.90611014E-02  3.69218358E-01  0.00000000E+00
 -6.97650250E-01 -2.33837113E-02 -9.97085552E-02  0.00000000E+00  1.20427502E-03
  6.80387115E-03 -6.29244434E-02 -1.43584821E-02  0.00000000E+00  0.00000000E+00
 -5.44372050E-01  3.32634251E-01 -7.29684898E-01  6.16019097E-01 -7.29684898E-01
  6.16019097E-01  8.80822171E-04 -4.29843156E-01 -5.35931518E-02 -2.54466116E-01
  0.00000000E+00  8.37721002E-01 -1.36304299E-02  3.61155757E-01  0.00000000E+00
 -5.68974513E-02 -1.52899582E-01 -1.26777079E-01 -6.14284388E-04  0.00000000E+00
  0.00000000E+00  3.03788758E-01 -4.47495720E-01 -1.18793457E-02 -8.73471766E-01
  1.24654270E-01 -2.53694067E-01  0.00000000E+00  2.23867709E+00  1.56969147E-01
  3.53988872E-01  0.00000000E+00  5.65319908E-02  9.79300208E-03 -1.56414733E-01
  1.32175843E-03  0.00000000E+00  0.00000000E+00  3.85586921E-01 -8.96683635E-01
 -1.06627232E-01 -4.31961570E-01 -1.06627232E-01 -4.31961570E-01 -1.71068602E-04
 -7.92649187E-01  1.40512674E-01  4.22475956E-01  0.00000000E+00  1.32067278E+00
 -3.24315967E-01 -6.30335688E-01  0.00000000E+00 -1.39641104E-01 -3.02251674E-01
 -2.79928972E-01  1.20667744E-03  0.00000000E+00  0.00000000E+00  5.19594561E-01
 -8.36263684E-01  0.00000000E+00  0.00000000E+00  0.00000000E+00  0.00000000E+00