MOP                                                                     
Freq      RB3LYP                                                      6-31G(d)            
Number of atoms                            I               13
Info1-9                                    I   N=           9
          36          36        1002           0           0         100
           6          18        -502
Full Title                                 C   N=           1
MOP         
Route                                      C   N=           6
#P opt freq b3lyp/6-31g(d) geom=connectivity temperature=0.0
01          
Charge                                     I                0
Multiplicity                               I                1
Number of electrons                        I               40
Number of alpha electrons                  I               20
Number of beta electrons                   I               20
Number of basis functions                  I               91
Number of independent functions            I               91
Number of point charges in /Mol/           I                0
Number of translation vectors              I                0
Atomic numbers                             I   N=          13
           6           6           6           8           6           1
           1           1           1           1           1           1
           1
Nuclear charges                            R   N=          13
  6.00000000E+00  6.00000000E+00  6.00000000E+00  8.00000000E+00  6.00000000E+00
  1.00000000E+00  1.00000000E+00  1.00000000E+00  1.00000000E+00  1.00000000E+00
  1.00000000E+00  1.00000000E+00  1.00000000E+00
Current cartesian coordinates              R   N=          39
 -1.04837425E+00  1.67483415E-01 -7.96847618E-02 -1.15375541E+00 -2.67651487E+00
 -7.12836799E-02 -3.06114265E+00  1.65770170E+00  2.50362114E-01  1.23756848E+00
  1.29625794E+00 -6.07375270E-01  3.46616417E+00  1.38650026E-01  3.39945210E-01
 -3.10603014E+00 -3.31161841E+00  1.47565559E-01 -4.09831625E-01 -3.45358304E+00
 -1.84495353E+00 -4.48634846E-02 -3.50176764E+00  1.47409089E+00 -4.93002791E+00
  8.57920557E-01  4.99883136E-01 -2.87276538E+00  3.69838337E+00  2.20831377E-01
  3.78550881E+00 -1.74558100E+00 -4.66386556E-01  5.02530092E+00  1.37023199E+00
 -2.19436949E-01  3.43480982E+00 -7.97096166E-03  2.41137494E+00
Number of symbols in /Mol/                 I                0
Force Field                                I                0
Atom Types                                 C   N=          13
                                                            
                                                            
                                    
Int Atom Types                             I   N=          13
           0           0           0           0           0           0
           0           0           0           0           0           0
           0
MM charges                                 R   N=          13
  0.00000000E+00  0.00000000E+00  0.00000000E+00  0.00000000E+00  0.00000000E+00
  0.00000000E+00  0.00000000E+00  0.00000000E+00  0.00000000E+00  0.00000000E+00
  0.00000000E+00  0.00000000E+00  0.00000000E+00
Integer atomic weights                     I   N=          13
          12          12          12          16          12           1
           1           1           1           1           1           1
           1
Real atomic weights                        R   N=          13
  1.20000000E+01  1.20000000E+01  1.20000000E+01  1.59949146E+01  1.20000000E+01
  1.00782504E+00  1.00782504E+00  1.00782504E+00  1.00782504E+00  1.00782504E+00
  1.00782504E+00  1.00782504E+00  1.00782504E+00
Atom fragment info                         I   N=          13
           0           0           0           0           0           0
           0           0           0           0           0           0
           0
Atom residue num                           I   N=          13
           0           0           0           0           0           0
           0           0           0           0           0           0
           0
Nuclear spins                              I   N=          13
           0           0           0           0           0           1
           1           1           1           1           1           1
           1
Nuclear ZEff                               R   N=          13
 -3.60000000E+00 -3.60000000E+00 -3.60000000E+00 -5.60000000E+00 -3.60000000E+00
 -1.00000000E+00 -1.00000000E+00 -1.00000000E+00 -1.00000000E+00 -1.00000000E+00
 -1.00000000E+00 -1.00000000E+00 -1.00000000E+00
Nuclear ZNuc                               R   N=          13
  6.00000000E+00  6.00000000E+00  6.00000000E+00  8.00000000E+00  6.00000000E+00
  1.00000000E+00  1.00000000E+00  1.00000000E+00  1.00000000E+00  1.00000000E+00
  1.00000000E+00  1.00000000E+00  1.00000000E+00
Nuclear QMom                               R   N=          13
  0.00000000E+00  0.00000000E+00  0.00000000E+00  0.00000000E+00  0.00000000E+00
  0.00000000E+00  0.00000000E+00  0.00000000E+00  0.00000000E+00  0.00000000E+00
  0.00000000E+00  0.00000000E+00  0.00000000E+00
Nuclear GFac                               R   N=          13
  0.00000000E+00  0.00000000E+00  0.00000000E+00  0.00000000E+00  0.00000000E+00
  2.79284600E+00  2.79284600E+00  2.79284600E+00  2.79284600E+00  2.79284600E+00
  2.79284600E+00  2.79284600E+00  2.79284600E+00
MicOpt                                     I   N=          13
          -1          -1          -1          -1          -1          -1
          -1          -1          -1          -1          -1          -1
          -1
Number of residues                         I                0
Number of secondary structures             I                0
Redundant internal dimensions              I   N=           4
          46          12          19          15
Redundant internal coordinate indices      I   N=         184
           1           2           0           0           1           3
           0           0           1           4           0           0
           2           6           0           0           2           7
           0           0           2           8           0           0
           3           9           0           0           3          10
           0           0           4           5           0           0
           5          11           0           0           5          12
           0           0           5          13           0           0
           2           1           3           0           2           1
           4           0           3           1           4           0
           1           2           6           0           1           2
           7           0           1           2           8           0
           6           2           7           0           6           2
           8           0           7           2           8           0
           1           3           9           0           1           3
          10           0           9           3          10           0
           1           4           5           0           4           5
          11           0           4           5          12           0
           4           5          13           0          11           5
          12           0          11           5          13           0
          12           5          13           0           3           1
           2           6           3           1           2           7
           3           1           2           8           4           1
           2           6           4           1           2           7
           4           1           2           8           2           1
           3           9           2           1           3          10
           4           1           3           9           4           1
           3          10           2           1           4           5
           3           1           4           5           1           4
           5          11           1           4           5          12
           1           4           5          13
Redundant internal coordinates             R   N=          46
  2.84596240E+00  2.52604792E+00  2.60348293E+00  2.06461332E+00  2.07440649E+00
  2.07337068E+00  2.04808270E+00  2.04957063E+00  2.68404749E+00  2.07424166E+00
  2.06412450E+00  2.07684904E+00  2.16475182E+00  2.05598402E+00  2.06045749E+00
  1.92061550E+00  1.93749574E+00  1.96075105E+00  1.89073499E+00  1.87997947E+00
  1.87170646E+00  2.10904566E+00  2.10861597E+00  2.06511615E+00  2.06066632E+00
  1.96320353E+00  1.84854601E+00  1.94973728E+00  1.89690983E+00  1.90277566E+00
  1.90056218E+00  4.83479692E-02  2.14129552E+00 -2.04619802E+00 -3.02399683E+00
 -9.31049280E-01  1.16464249E+00 -2.82393315E-02 -3.13863940E+00  3.04394080E+00
 -6.64592617E-02 -6.51399031E-01  2.55521696E+00  1.11374520E+00 -3.09965508E+00
 -1.03279266E+00
ZRed-IntVec                                I   N=          46
           0           0           0           0           0           0
           0           0           0           0           0           0
           0           0           0           0           0           0
           0           0           0           0           0           0
           0           0           0           0           0           0
           0           0           0           0           0           0
           0           0           0           0           0           0
           0           0           0           0
ZRed-FPVec                                 R   N=          46
  0.00000000E+00  0.00000000E+00  0.00000000E+00  0.00000000E+00  0.00000000E+00
  0.00000000E+00  0.00000000E+00  0.00000000E+00  0.00000000E+00  0.00000000E+00
  0.00000000E+00  0.00000000E+00  0.00000000E+00  0.00000000E+00  0.00000000E+00
  0.00000000E+00  0.00000000E+00  0.00000000E+00  0.00000000E+00  0.00000000E+00
  0.00000000E+00  0.00000000E+00  0.00000000E+00  0.00000000E+00  0.00000000E+00
  0.00000000E+00  0.00000000E+00  0.00000000E+00  0.00000000E+00  0.00000000E+00
  0.00000000E+00  0.00000000E+00  0.00000000E+00  0.00000000E+00  0.00000000E+00
  0.00000000E+00  0.00000000E+00  0.00000000E+00  0.00000000E+00  0.00000000E+00
  0.00000000E+00  0.00000000E+00  0.00000000E+00  0.00000000E+00  0.00000000E+00
  0.00000000E+00
ZRed-Constraint1                           R   N=          46
  2.84596240E+00  2.52604792E+00  2.60348293E+00  2.06461332E+00  2.07440649E+00
  2.07337068E+00  2.04808270E+00  2.04957063E+00  2.68404749E+00  2.07424166E+00
  2.06412450E+00  2.07684904E+00  2.16475182E+00  2.05598402E+00  2.06045749E+00
  1.92061550E+00  1.93749574E+00  1.96075105E+00  1.89073499E+00  1.87997947E+00
  1.87170646E+00  2.10904566E+00  2.10861597E+00  2.06511615E+00  2.06066632E+00
  1.96320353E+00  1.84854601E+00  1.94973728E+00  1.89690983E+00  1.90277566E+00
  1.90056218E+00  4.83479692E-02  2.14129552E+00 -2.04619802E+00 -3.02399683E+00
 -9.31049280E-01  1.16464249E+00 -2.82393315E-02 -3.13863940E+00  3.04394080E+00
 -6.64592617E-02 -6.51399031E-01  2.55521696E+00  1.11374520E+00 -3.09965508E+00
 -1.03279266E+00
ZRed-Constraint2                           R   N=          46
  2.91017823E+00  2.56095685E+00  2.70230835E+00  2.02200695E+00  2.02200696E+00
  2.02200696E+00  2.02200694E+00  2.02200696E+00  2.70230836E+00  2.02200696E+00
  2.02200696E+00  2.02200696E+00  2.09439509E+00  2.09439511E+00  2.09439510E+00
  1.91063324E+00  1.91063323E+00  1.91063324E+00  1.91063324E+00  1.91063324E+00
  1.91063323E+00  2.09439511E+00  2.09439509E+00  2.09439511E+00  1.91063323E+00
  1.91063324E+00  1.91063324E+00  1.91063323E+00  1.91063324E+00  1.91063324E+00
  1.91063323E+00  5.23598765E-01  2.61799387E+00 -1.57079634E+00 -2.61799388E+00
 -5.23598767E-01  1.57079633E+00 -3.21571754E-06  3.14158910E+00  3.14158942E+00
 -3.57143253E-06 -1.57079633E+00  1.57079634E+00  1.04719754E+00  3.14159265E+00
 -1.04719756E+00
SymInf integers                            I   N=          26
           1           1           1           1           1           0
           0           0           0           0           0           0
           0           0           0           0           0           0
           0           0           0           0           0           0
           0           0
RotTr to input orientation                 R   N=          12
 -8.51819937E-01 -2.65967766E-01 -4.51291417E-01 -3.80695217E-01  9.06094680E-01
  1.84563222E-01  3.59824884E-01  3.29019116E-01 -8.73082169E-01  2.19848467E-01
 -1.85145187E+00 -1.94168098E+00
Number of contracted shells                I               36
Number of primitive shells                 I               87
Pure/Cartesian d shells                    I                1
Pure/Cartesian f shells                    I                0
Highest angular momentum                   I                2
Largest degree of contraction              I                6
Shell types                                I   N=          36
           0          -1          -1           2           0          -1
          -1           2           0          -1          -1           2
           0          -1          -1           2           0          -1
          -1           2           0           0           0           0
           0           0           0           0           0           0
           0           0           0           0           0           0
Number of primitives per shell             I   N=          36
           6           3           1           1           6           3
           1           1           6           3           1           1
           6           3           1           1           6           3
           1           1           3           1           3           1
           3           1           3           1           3           1
           3           1           3           1           3           1
Shell to atom map                          I   N=          36
           1           1           1           1           2           2
           2           2           3           3           3           3
           4           4           4           4           5           5
           5           5           6           6           7           7
           8           8           9           9          10          10
          11          11          12          12          13          13
Primitive exponents                        R   N=          87
  3.04752488E+03  4.57369518E+02  1.03948685E+02  2.92101553E+01  9.28666296E+00
  3.16392696E+00  7.86827235E+00  1.88128854E+00  5.44249258E-01  1.68714478E-01
  8.00000000E-01  3.04752488E+03  4.57369518E+02  1.03948685E+02  2.92101553E+01
  9.28666296E+00  3.16392696E+00  7.86827235E+00  1.88128854E+00  5.44249258E-01
  1.68714478E-01  8.00000000E-01  3.04752488E+03  4.57369518E+02  1.03948685E+02
  2.92101553E+01  9.28666296E+00  3.16392696E+00  7.86827235E+00  1.88128854E+00
  5.44249258E-01  1.68714478E-01  8.00000000E-01  5.48467166E+03  8.25234946E+02
  1.88046958E+02  5.29645000E+01  1.68975704E+01  5.79963534E+00  1.55396162E+01
  3.59993359E+00  1.01376175E+00  2.70005823E-01  8.00000000E-01  3.04752488E+03
  4.57369518E+02  1.03948685E+02  2.92101553E+01  9.28666296E+00  3.16392696E+00
  7.86827235E+00  1.88128854E+00  5.44249258E-01  1.68714478E-01  8.00000000E-01
  1.87311370E+01  2.82539436E+00  6.40121692E-01  1.61277759E-01  1.87311370E+01
  2.82539436E+00  6.40121692E-01  1.61277759E-01  1.87311370E+01  2.82539436E+00
  6.40121692E-01  1.61277759E-01  1.87311370E+01  2.82539436E+00  6.40121692E-01
  1.61277759E-01  1.87311370E+01  2.82539436E+00  6.40121692E-01  1.61277759E-01
  1.87311370E+01  2.82539436E+00  6.40121692E-01  1.61277759E-01  1.87311370E+01
  2.82539436E+00  6.40121692E-01  1.61277759E-01  1.87311370E+01  2.82539436E+00
  6.40121692E-01  1.61277759E-01
Contraction coefficients                   R   N=          87
  1.83473713E-03  1.40373228E-02  6.88426223E-02  2.32184443E-01  4.67941348E-01
  3.62311985E-01 -1.19332420E-01 -1.60854152E-01  1.14345644E+00  1.00000000E+00
  1.00000000E+00  1.83473713E-03  1.40373228E-02  6.88426223E-02  2.32184443E-01
  4.67941348E-01  3.62311985E-01 -1.19332420E-01 -1.60854152E-01  1.14345644E+00
  1.00000000E+00  1.00000000E+00  1.83473713E-03  1.40373228E-02  6.88426223E-02
  2.32184443E-01  4.67941348E-01  3.62311985E-01 -1.19332420E-01 -1.60854152E-01
  1.14345644E+00  1.00000000E+00  1.00000000E+00  1.83107443E-03  1.39501722E-02
  6.84450781E-02  2.32714336E-01  4.70192898E-01  3.58520853E-01 -1.10777550E-01
 -1.48026263E-01  1.13076702E+00  1.00000000E+00  1.00000000E+00  1.83473713E-03
  1.40373228E-02  6.88426223E-02  2.32184443E-01  4.67941348E-01  3.62311985E-01
 -1.19332420E-01 -1.60854152E-01  1.14345644E+00  1.00000000E+00  1.00000000E+00
  3.34946043E-02  2.34726953E-01  8.13757326E-01  1.00000000E+00  3.34946043E-02
  2.34726953E-01  8.13757326E-01  1.00000000E+00  3.34946043E-02  2.34726953E-01
  8.13757326E-01  1.00000000E+00  3.34946043E-02  2.34726953E-01  8.13757326E-01
  1.00000000E+00  3.34946043E-02  2.34726953E-01  8.13757326E-01  1.00000000E+00
  3.34946043E-02  2.34726953E-01  8.13757326E-01  1.00000000E+00  3.34946043E-02
  2.34726953E-01  8.13757326E-01  1.00000000E+00  3.34946043E-02  2.34726953E-01
  8.13757326E-01  1.00000000E+00
P(S=P) Contraction coefficients            R   N=          87
  0.00000000E+00  0.00000000E+00  0.00000000E+00  0.00000000E+00  0.00000000E+00
  0.00000000E+00  6.89990666E-02  3.16423961E-01  7.44308291E-01  1.00000000E+00
  0.00000000E+00  0.00000000E+00  0.00000000E+00  0.00000000E+00  0.00000000E+00
  0.00000000E+00  0.00000000E+00  6.89990666E-02  3.16423961E-01  7.44308291E-01
  1.00000000E+00  0.00000000E+00  0.00000000E+00  0.00000000E+00  0.00000000E+00
  0.00000000E+00  0.00000000E+00  0.00000000E+00  6.89990666E-02  3.16423961E-01
  7.44308291E-01  1.00000000E+00  0.00000000E+00  0.00000000E+00  0.00000000E+00
  0.00000000E+00  0.00000000E+00  0.00000000E+00  0.00000000E+00  7.08742682E-02
  3.39752839E-01  7.27158577E-01  1.00000000E+00  0.00000000E+00  0.00000000E+00
  0.00000000E+00  0.00000000E+00  0.00000000E+00  0.00000000E+00  0.00000000E+00
  6.89990666E-02  3.16423961E-01  7.44308291E-01  1.00000000E+00  0.00000000E+00
  0.00000000E+00  0.00000000E+00  0.00000000E+00  0.00000000E+00  0.00000000E+00
  0.00000000E+00  0.00000000E+00  0.00000000E+00  0.00000000E+00  0.00000000E+00
  0.00000000E+00  0.00000000E+00  0.00000000E+00  0.00000000E+00  0.00000000E+00
  0.00000000E+00  0.00000000E+00  0.00000000E+00  0.00000000E+00  0.00000000E+00
  0.00000000E+00  0.00000000E+00  0.00000000E+00  0.00000000E+00  0.00000000E+00
  0.00000000E+00  0.00000000E+00  0.00000000E+00  0.00000000E+00  0.00000000E+00
  0.00000000E+00  0.00000000E+00
Coordinates of each shell                  R   N=         108
 -1.04837425E+00  1.67483415E-01 -7.96847618E-02 -1.04837425E+00  1.67483415E-01
 -7.96847618E-02 -1.04837425E+00  1.67483415E-01 -7.96847618E-02 -1.04837425E+00
  1.67483415E-01 -7.96847618E-02 -1.15375541E+00 -2.67651487E+00 -7.12836799E-02
 -1.15375541E+00 -2.67651487E+00 -7.12836799E-02 -1.15375541E+00 -2.67651487E+00
 -7.12836799E-02 -1.15375541E+00 -2.67651487E+00 -7.12836799E-02 -3.06114265E+00
  1.65770170E+00  2.50362114E-01 -3.06114265E+00  1.65770170E+00  2.50362114E-01
 -3.06114265E+00  1.65770170E+00  2.50362114E-01 -3.06114265E+00  1.65770170E+00
  2.50362114E-01  1.23756848E+00  1.29625794E+00 -6.07375270E-01  1.23756848E+00
  1.29625794E+00 -6.07375270E-01  1.23756848E+00  1.29625794E+00 -6.07375270E-01
  1.23756848E+00  1.29625794E+00 -6.07375270E-01  3.46616417E+00  1.38650026E-01
  3.39945210E-01  3.46616417E+00  1.38650026E-01  3.39945210E-01  3.46616417E+00
  1.38650026E-01  3.39945210E-01  3.46616417E+00  1.38650026E-01  3.39945210E-01
 -3.10603014E+00 -3.31161841E+00  1.47565559E-01 -3.10603014E+00 -3.31161841E+00
  1.47565559E-01 -4.09831625E-01 -3.45358304E+00 -1.84495353E+00 -4.09831625E-01
 -3.45358304E+00 -1.84495353E+00 -4.48634846E-02 -3.50176764E+00  1.47409089E+00
 -4.48634846E-02 -3.50176764E+00  1.47409089E+00 -4.93002791E+00  8.57920557E-01
  4.99883136E-01 -4.93002791E+00  8.57920557E-01  4.99883136E-01 -2.87276538E+00
  3.69838337E+00  2.20831377E-01 -2.87276538E+00  3.69838337E+00  2.20831377E-01
  3.78550881E+00 -1.74558100E+00 -4.66386556E-01  3.78550881E+00 -1.74558100E+00
 -4.66386556E-01  5.02530092E+00  1.37023199E+00 -2.19436949E-01  5.02530092E+00
  1.37023199E+00 -2.19436949E-01  3.43480982E+00 -7.97096166E-03  2.41137494E+00
  3.43480982E+00 -7.97096166E-03  2.41137494E+00
Num ILSW                                   I              100
ILSW                                       I   N=         100
           0           1           0           0           2           0
           0           0           0           0         402          -1
           5           0           0           0           2           0
           0           0           0           0           1           0
           1           0           0           0           0           0
           0           0      100000           0          -1           0
           0           0           0           0           0           0
           0           0           0           1           0           0
           0 -2000000000           1           0           0           0
           0           0           4          52           0           0
           0           0           5           0           0           0
           0           0           0          13           0           1
           0           0           0           0           0           0
           0           0           0           0           0           0
           0           0           0           0           0           0
           0           0           0           0           0           0
           0           0           0           0
Num RLSW                                   I               52
RLSW                                       R   N=          52
  8.00000000E-01  7.20000000E-01  1.00000000E+00  8.10000000E-01  2.00000000E-01
  0.00000000E+00  0.00000000E+00  1.00000000E+00  0.00000000E+00  0.00000000E+00
  0.00000000E+00  0.00000000E+00  1.00000000E+00  0.00000000E+00  0.00000000E+00
  0.00000000E+00  0.00000000E+00  1.00000000E+00  0.00000000E+00  0.00000000E+00
  0.00000000E+00  0.00000000E+00  1.00000000E+00  0.00000000E+00  0.00000000E+00
  0.00000000E+00  0.00000000E+00  1.00000000E+00  0.00000000E+00  0.00000000E+00
  0.00000000E+00  0.00000000E+00  1.00000000E+00  0.00000000E+00  0.00000000E+00
  0.00000000E+00  0.00000000E+00  0.00000000E+00  1.00000000E+00  1.00000000E+00
  0.00000000E+00  1.00000000E+00  0.00000000E+00  0.00000000E+00  0.00000000E+00
  0.00000000E+00  0.00000000E+00  0.00000000E+00  0.00000000E+00  0.00000000E+00
  0.00000000E+00  0.00000000E+00
MxBond                                     I                4
NBond                                      I   N=          13
           3           4           3           2           4           1
           1           1           1           1           1           1
           1
IBond                                      I   N=          52
           2           3           4           0           1           6
           7           8           1           9          10           0
           1           5           0           0           4          11
          12          13           2           0           0           0
           2           0           0           0           2           0
           0           0           3           0           0           0
           3           0           0           0           5           0
           0           0           5           0           0           0
           5           0           0           0
RBond                                      R   N=          52
  1.00000000E+00  2.00000000E+00  1.00000000E+00  0.00000000E+00  1.00000000E+00
  1.00000000E+00  1.00000000E+00  1.00000000E+00  2.00000000E+00  1.00000000E+00
  1.00000000E+00  0.00000000E+00  1.00000000E+00  1.00000000E+00  0.00000000E+00
  0.00000000E+00  1.00000000E+00  1.00000000E+00  1.00000000E+00  1.00000000E+00
  1.00000000E+00  0.00000000E+00  0.00000000E+00  0.00000000E+00  1.00000000E+00
  0.00000000E+00  0.00000000E+00  0.00000000E+00  1.00000000E+00  0.00000000E+00
  0.00000000E+00  0.00000000E+00  1.00000000E+00  0.00000000E+00  0.00000000E+00
  0.00000000E+00  1.00000000E+00  0.00000000E+00  0.00000000E+00  0.00000000E+00
  1.00000000E+00  0.00000000E+00  0.00000000E+00  0.00000000E+00  1.00000000E+00
  0.00000000E+00  0.00000000E+00  0.00000000E+00  1.00000000E+00  0.00000000E+00
  0.00000000E+00  0.00000000E+00
Virial Ratio                               R      2.009519276958979E+00
SCF Energy                                 R     -2.324287977084077E+02
Total Energy                               R     -2.324287977084077E+02
RMS Force                                  R      6.921908750813099E-06
RMS Density                                R      3.799622408237324E-09
NImag                                      I                0
Job Status                                 I                1
Nuclear derivative order                   I                2
External E-field                           R   N=          35
  0.00000000E+00  0.00000000E+00  0.00000000E+00  0.00000000E+00  0.00000000E+00
  0.00000000E+00  0.00000000E+00  0.00000000E+00  0.00000000E+00  0.00000000E+00
  0.00000000E+00  0.00000000E+00  0.00000000E+00  0.00000000E+00  0.00000000E+00
  0.00000000E+00  0.00000000E+00  0.00000000E+00  0.00000000E+00  0.00000000E+00
  0.00000000E+00  0.00000000E+00  0.00000000E+00  0.00000000E+00  0.00000000E+00
  0.00000000E+00  0.00000000E+00  0.00000000E+00  0.00000000E+00  0.00000000E+00
  0.00000000E+00  0.00000000E+00  0.00000000E+00  0.00000000E+00  0.00000000E+00
IOpCl                                      I                0
IROHF                                      I                0
Alpha Orbital Energies                     R   N=          91
 -1.91611290E+01 -1.02365994E+01 -1.02342495E+01 -1.01875723E+01 -1.01580914E+01
 -1.04573264E+00 -7.79469914E-01 -7.08588071E-01 -6.69908387E-01 -5.47311054E-01
 -4.82493803E-01 -4.67066249E-01 -4.61756701E-01 -4.15372532E-01 -4.03015072E-01
 -3.96862590E-01 -3.71644321E-01 -3.35141201E-01 -2.97187082E-01 -2.16292430E-01
  3.98475818E-02  9.02281140E-02  1.15249140E-01  1.41185350E-01  1.54335906E-01
  1.56436880E-01  1.65381118E-01  1.75658334E-01  2.01217292E-01  2.07652848E-01
  2.41535860E-01  3.26027505E-01  3.69436673E-01  5.08738558E-01  5.18919212E-01
  5.23946202E-01  5.44236885E-01  5.70980368E-01  6.10796773E-01  6.44250766E-01
  6.70421684E-01  6.86315521E-01  6.99847398E-01  7.39859519E-01  7.96560206E-01
  8.51453619E-01  8.54547905E-01  8.63617392E-01  8.83486993E-01  8.97065521E-01
  9.28896247E-01  9.60881801E-01  9.95148160E-01  1.00533808E+00  1.07131739E+00
  1.12680285E+00  1.17773154E+00  1.21789333E+00  1.24235284E+00  1.35617411E+00
  1.42278345E+00  1.48420745E+00  1.57777846E+00  1.59894264E+00  1.70384391E+00
  1.80834269E+00  1.83643699E+00  1.88196608E+00  1.93982793E+00  1.96176583E+00
  2.01873616E+00  2.06654304E+00  2.10172126E+00  2.16632807E+00  2.19886969E+00
  2.24755937E+00  2.30605194E+00  2.35478167E+00  2.37862820E+00  2.41248912E+00
  2.46104997E+00  2.56755890E+00  2.73852869E+00  2.75910606E+00  2.95889917E+00
  3.07232776E+00  4.00666041E+00  4.14033763E+00  4.22006651E+00  4.24563452E+00
  4.51058703E+00
Alpha MO coefficients                      R   N=        8281
 -1.86494158E-05  1.97146045E-04  3.34144719E-04  2.72401330E-04 -1.22607662E-04
 -1.06135742E-03 -1.98641551E-03 -1.66312354E-03  5.91490507E-04  7.28917326E-05
  6.35026784E-05 -1.75065144E-05  7.83027870E-05 -3.66736816E-05 -3.64266459E-05
  2.05648542E-05  1.63101773E-04  1.13940781E-06 -3.36875172E-05  5.55960965E-06
 -1.14174390E-03  4.00090877E-04 -4.43861763E-04 -1.71641399E-04 -1.56894189E-05
 -5.56805100E-05  4.95317616E-05  2.69739697E-05  1.67174044E-05 -1.67467125E-05
  9.54657299E-06  1.53253186E-04  3.92519334E-05 -2.65195362E-05 -5.60883350E-06
 -1.55110302E-04  9.92829863E-05  8.52050684E-04 -8.36349298E-05 -9.24336345E-05
 -6.32754274E-05  3.49829863E-05  1.46739370E-05  2.12264574E-05  1.10108884E-05
  9.92684570E-01  2.56872553E-02 -4.09384782E-06 -8.15182424E-04  4.76966959E-04
  1.36416506E-02 -5.65942311E-04 -2.35407748E-04  1.99665390E-04 -8.33634470E-03
 -8.30142420E-03 -8.26443079E-03  4.39312608E-05 -4.52893096E-05  4.26099732E-05
  4.74640147E-06  1.93128139E-04 -2.96904128E-04  2.29357309E-04 -1.72133220E-04
 -1.57392103E-03  5.56252122E-04 -5.99932150E-04  3.71034162E-04  2.37114983E-04
  8.66652537E-05  6.68799913E-05 -1.67988493E-04  1.34356484E-04 -7.90884195E-05
  6.84614351E-05  1.73148631E-04  2.18108985E-05 -6.35154658E-05  1.31323903E-05
  6.64413413E-05  8.19603945E-05  7.48875494E-05  2.40066072E-05 -5.18544102E-04
  6.88226182E-05 -9.38375190E-05  1.16534858E-04  1.42515804E-04  4.78270325E-05
  3.11853221E-05  9.92884107E-01  4.86866973E-02  1.01751118E-03  1.46725296E-04
 -2.06733075E-04 -1.30276644E-02  3.51264068E-03  2.81701857E-03 -7.09052586E-04
 -8.47565475E-03 -8.92874174E-03 -9.35228767E-03  1.18790970E-04 -2.10424614E-04
 -4.31501641E-05  2.41614258E-03 -1.46134980E-04  5.03259862E-05 -2.09670402E-04
 -1.41249543E-06  4.93274856E-03 -1.13386318E-03  2.34825849E-03  2.38028522E-04
 -1.35848211E-04 -4.85495374E-04 -1.31828509E-04 -1.51470654E-04 -4.55729119E-06
  2.66033102E-05  5.15576443E-03 -3.21441141E-04 -2.92625511E-04  2.33033203E-04
  4.32598469E-05  4.83394373E-03  6.98488715E-04 -2.74028455E-03 -7.54503312E-05