 Entering Gaussian System, Link 0=/apps/cent7/gaussian/g16-A.03/g16-haswell/g16/g16
 Initial command:
 /apps/cent7/gaussian/g16-A.03/g16-haswell/g16/l1.exe "/scratch/brown/finej/gaussian/Gau-315883.inp" -scrdir="/scratch/brown/finej/gaussian/"
 Entering Link 1 = /apps/cent7/gaussian/g16-A.03/g16-haswell/g16/l1.exe PID=    315884.
  
 Copyright (c) 1988,1990,1992,1993,1995,1998,2003,2009,2016,
            Gaussian, Inc.  All Rights Reserved.
  
 This is part of the Gaussian(R) 16 program.  It is based on
 the Gaussian(R) 09 system (copyright 2009, Gaussian, Inc.),
 the Gaussian(R) 03 system (copyright 2003, Gaussian, Inc.),
 the Gaussian(R) 98 system (copyright 1998, Gaussian, Inc.),
 the Gaussian(R) 94 system (copyright 1995, Gaussian, Inc.),
 the Gaussian 92(TM) system (copyright 1992, Gaussian, Inc.),
 the Gaussian 90(TM) system (copyright 1990, Gaussian, Inc.),
 the Gaussian 88(TM) system (copyright 1988, Gaussian, Inc.),
 the Gaussian 86(TM) system (copyright 1986, Carnegie Mellon
 University), and the Gaussian 82(TM) system (copyright 1983,
 Carnegie Mellon University). Gaussian is a federally registered
 trademark of Gaussian, Inc.
  
 This software contains proprietary and confidential information,
 including trade secrets, belonging to Gaussian, Inc.
  
 This software is provided under written license and may be
 used, copied, transmitted, or stored only in accord with that
 written license.
  
 The following legend is applicable only to US Government
 contracts under FAR:
  
                    RESTRICTED RIGHTS LEGEND
  
 Use, reproduction and disclosure by the US Government is
 subject to restrictions as set forth in subparagraphs (a)
 and (c) of the Commercial Computer Software - Restricted
 Rights clause in FAR 52.227-19.
  
 Gaussian, Inc.
 340 Quinnipiac St., Bldg. 40, Wallingford CT 06492
  
  
 ---------------------------------------------------------------
 Warning -- This program may not be used in any manner that
 competes with the business of Gaussian, Inc. or will provide
 assistance to any competitor of Gaussian, Inc.  The licensee
 of this program is prohibited from giving any competitor of
 Gaussian, Inc. access to this program.  By using this program,
 the user acknowledges that Gaussian, Inc. is engaged in the
 business of creating and licensing software in the field of
 computational chemistry and represents and warrants to the
 licensee that it is not a competitor of Gaussian, Inc. and that
 it will not use this program in any manner prohibited above.
 ---------------------------------------------------------------
  

 Cite this work as:
 Gaussian 16, Revision A.03,
 M. J. Frisch, G. W. Trucks, H. B. Schlegel, G. E. Scuseria, 
 M. A. Robb, J. R. Cheeseman, G. Scalmani, V. Barone, 
 G. A. Petersson, H. Nakatsuji, X. Li, M. Caricato, A. V. Marenich, 
 J. Bloino, B. G. Janesko, R. Gomperts, B. Mennucci, H. P. Hratchian, 
 J. V. Ortiz, A. F. Izmaylov, J. L. Sonnenberg, D. Williams-Young, 
 F. Ding, F. Lipparini, F. Egidi, J. Goings, B. Peng, A. Petrone, 
 T. Henderson, D. Ranasinghe, V. G. Zakrzewski, J. Gao, N. Rega, 
 G. Zheng, W. Liang, M. Hada, M. Ehara, K. Toyota, R. Fukuda, 
 J. Hasegawa, M. Ishida, T. Nakajima, Y. Honda, O. Kitao, H. Nakai, 
 T. Vreven, K. Throssell, J. A. Montgomery, Jr., J. E. Peralta, 
 F. Ogliaro, M. J. Bearpark, J. J. Heyd, E. N. Brothers, K. N. Kudin, 
 V. N. Staroverov, T. A. Keith, R. Kobayashi, J. Normand, 
 K. Raghavachari, A. P. Rendell, J. C. Burant, S. S. Iyengar, 
 J. Tomasi, M. Cossi, J. M. Millam, M. Klene, C. Adamo, R. Cammi, 
 J. W. Ochterski, R. L. Martin, K. Morokuma, O. Farkas, 
 J. B. Foresman, and D. J. Fox, Gaussian, Inc., Wallingford CT, 2016.
 
 ******************************************
 Gaussian 16:  ES64L-G16RevA.03 25-Dec-2016
                14-Oct-2019 
 ******************************************
 %nprocshared=24
 Will use up to   24 processors via shared memory.
 %mem=10GB
 %chk=mop.chk
 --------------------------------------------------------------
 #P opt freq b3lyp/6-31g(d) geom=connectivity temperature=0.001
 --------------------------------------------------------------
 1/18=20,19=15,26=3,38=1,57=2,112=-1000/1,3;
 2/9=110,12=2,17=6,18=5,40=1/2;
 3/5=1,6=6,7=1,11=2,25=1,30=1,71=1,74=-5/1,2,3;
 4//1;
 5/5=2,38=5/2;
 6/7=2,8=2,9=2,10=2,28=1/1;
 7//1,2,3,16;
 1/18=20,19=15,26=3/3(2);
 2/9=110/2;
 99//99;
 2/9=110/2;
 3/5=1,6=6,7=1,11=2,25=1,30=1,71=1,74=-5/1,2,3;
 4/5=5,16=3,69=1/1;
 5/5=2,38=5/2;
 7//1,2,3,16;
 1/18=20,19=15,26=3/3(-5);
 2/9=110/2;
 6/7=2,8=2,9=2,10=2,19=2,28=1/1;
 99/9=1/99;
 Leave Link    1 at Mon Oct 14 01:56:22 2019, MaxMem=  1342177280 cpu:               1.0 elap:               0.0
 (Enter /apps/cent7/gaussian/g16-A.03/g16-haswell/g16/l101.exe)
 ---
 MOP
 ---
 Symbolic Z-matrix:
 Charge =  0 Multiplicity = 1
 C                     0.47094  -1.02444  -0.65493 
 C                     1.31227  -2.31267  -0.7199 
 C                     1.08349   0.18397  -0.62192 
 O                    -0.95665  -1.10334  -0.62942 
 C                    -1.45937  -1.07924  -1.96792 
 H                     2.24872  -2.15229  -0.22772 
 H                     0.78563  -3.10749  -0.23429 
 H                     1.48703  -2.57332  -1.74285 
 H                     2.15169   0.24301  -0.64101 
 H                     0.49892   1.07904  -0.57678 
 H                    -1.06578  -1.91242  -2.5118 
 H                    -2.52757  -1.13828  -1.94883 
 H                    -1.16093  -0.169    -2.44467 
 
 ITRead=  0  0  0  0  0  0  0  0  0  0  0  0  0
 MicOpt= -1 -1 -1 -1 -1 -1 -1 -1 -1 -1 -1 -1 -1
 NAtoms=     13 NQM=       13 NQMF=       0 NMMI=      0 NMMIF=      0
                NMic=       0 NMicF=      0.
                    Isotopes and Nuclear Properties:
 (Nuclear quadrupole moments (NQMom) in fm**2, nuclear magnetic moments (NMagM)
  in nuclear magnetons)

  Atom         1           2           3           4           5           6           7           8           9          10
 IAtWgt=          12          12          12          16          12           1           1           1           1           1
 AtmWgt=  12.0000000  12.0000000  12.0000000  15.9949146  12.0000000   1.0078250   1.0078250   1.0078250   1.0078250   1.0078250
 NucSpn=           0           0           0           0           0           1           1           1           1           1
 AtZEff=  -0.0000000  -0.0000000  -0.0000000  -0.0000000  -0.0000000  -0.0000000  -0.0000000  -0.0000000  -0.0000000  -0.0000000
 NQMom=    0.0000000   0.0000000   0.0000000   0.0000000   0.0000000   0.0000000   0.0000000   0.0000000   0.0000000   0.0000000
 NMagM=    0.0000000   0.0000000   0.0000000   0.0000000   0.0000000   2.7928460   2.7928460   2.7928460   2.7928460   2.7928460
 AtZNuc=   6.0000000   6.0000000   6.0000000   8.0000000   6.0000000   1.0000000   1.0000000   1.0000000   1.0000000   1.0000000

  Atom        11          12          13
 IAtWgt=           1           1           1
 AtmWgt=   1.0078250   1.0078250   1.0078250
 NucSpn=           1           1           1
 AtZEff=  -0.0000000  -0.0000000  -0.0000000
 NQMom=    0.0000000   0.0000000   0.0000000
 NMagM=    2.7928460   2.7928460   2.7928460
 AtZNuc=   1.0000000   1.0000000   1.0000000
 Leave Link  101 at Mon Oct 14 01:56:22 2019, MaxMem=  1342177280 cpu:               5.5 elap:               0.3
 (Enter /apps/cent7/gaussian/g16-A.03/g16-haswell/g16/l103.exe)

 GradGradGradGradGradGradGradGradGradGradGradGradGradGradGradGradGradGrad
 Berny optimization.
 Initialization pass.
                           ----------------------------
                           !    Initial Parameters    !
                           ! (Angstroms and Degrees)  !
 --------------------------                            --------------------------
 ! Name  Definition              Value          Derivative Info.                !
 --------------------------------------------------------------------------------
 ! R1    R(1,2)                  1.54           estimate D2E/DX2                !
 ! R2    R(1,3)                  1.3552         estimate D2E/DX2                !
 ! R3    R(1,4)                  1.43           estimate D2E/DX2                !
 ! R4    R(2,6)                  1.07           estimate D2E/DX2                !
 ! R5    R(2,7)                  1.07           estimate D2E/DX2                !
 ! R6    R(2,8)                  1.07           estimate D2E/DX2                !
 ! R7    R(3,9)                  1.07           estimate D2E/DX2                !
 ! R8    R(3,10)                 1.07           estimate D2E/DX2                !
 ! R9    R(4,5)                  1.43           estimate D2E/DX2                !
 ! R10   R(5,11)                 1.07           estimate D2E/DX2                !
 ! R11   R(5,12)                 1.07           estimate D2E/DX2                !
 ! R12   R(5,13)                 1.07           estimate D2E/DX2                !
 ! A1    A(2,1,3)              120.0            estimate D2E/DX2                !
 ! A2    A(2,1,4)              120.0            estimate D2E/DX2                !
 ! A3    A(3,1,4)              120.0            estimate D2E/DX2                !
 ! A4    A(1,2,6)              109.4712         estimate D2E/DX2                !
 ! A5    A(1,2,7)              109.4712         estimate D2E/DX2                !
 ! A6    A(1,2,8)              109.4712         estimate D2E/DX2                !
 ! A7    A(6,2,7)              109.4712         estimate D2E/DX2                !
 ! A8    A(6,2,8)              109.4712         estimate D2E/DX2                !
 ! A9    A(7,2,8)              109.4712         estimate D2E/DX2                !
 ! A10   A(1,3,9)              120.0            estimate D2E/DX2                !
 ! A11   A(1,3,10)             120.0            estimate D2E/DX2                !
 ! A12   A(9,3,10)             120.0            estimate D2E/DX2                !
 ! A13   A(1,4,5)              109.4712         estimate D2E/DX2                !
 ! A14   A(4,5,11)             109.4712         estimate D2E/DX2                !
 ! A15   A(4,5,12)             109.4712         estimate D2E/DX2                !
 ! A16   A(4,5,13)             109.4712         estimate D2E/DX2                !
 ! A17   A(11,5,12)            109.4712         estimate D2E/DX2                !
 ! A18   A(11,5,13)            109.4712         estimate D2E/DX2                !
 ! A19   A(12,5,13)            109.4712         estimate D2E/DX2                !
 ! D1    D(3,1,2,6)             30.0            estimate D2E/DX2                !
 ! D2    D(3,1,2,7)            150.0            estimate D2E/DX2                !
 ! D3    D(3,1,2,8)            -90.0            estimate D2E/DX2                !
 ! D4    D(4,1,2,6)           -150.0            estimate D2E/DX2                !
 ! D5    D(4,1,2,7)            -30.0            estimate D2E/DX2                !
 ! D6    D(4,1,2,8)             90.0            estimate D2E/DX2                !
 ! D7    D(2,1,3,9)             -0.0002         estimate D2E/DX2                !
 ! D8    D(2,1,3,10)           179.9998         estimate D2E/DX2                !
 ! D9    D(4,1,3,9)            179.9998         estimate D2E/DX2                !
 ! D10   D(4,1,3,10)            -0.0002         estimate D2E/DX2                !
 ! D11   D(2,1,4,5)            -90.0            estimate D2E/DX2                !
 ! D12   D(3,1,4,5)             90.0            estimate D2E/DX2                !
 ! D13   D(1,4,5,11)            60.0            estimate D2E/DX2                !
 ! D14   D(1,4,5,12)           180.0            estimate D2E/DX2                !
 ! D15   D(1,4,5,13)           -60.0            estimate D2E/DX2                !
 --------------------------------------------------------------------------------
 Trust Radius=3.00D-01 FncErr=1.00D-07 GrdErr=1.00D-06 EigMax=2.50D+02 EigMin=1.00D-04
 Number of steps in this run=     56 maximum allowed number of steps=    100.
 GradGradGradGradGradGradGradGradGradGradGradGradGradGradGradGradGradGrad

 Leave Link  103 at Mon Oct 14 01:56:22 2019, MaxMem=  1342177280 cpu:               1.0 elap:               0.1
 (Enter /apps/cent7/gaussian/g16-A.03/g16-haswell/g16/l202.exe)
                          Input orientation:                          
 ---------------------------------------------------------------------
 Center     Atomic      Atomic             Coordinates (Angstroms)
 Number     Number       Type             X           Y           Z
 ---------------------------------------------------------------------
      1          6           0        0.470940   -1.024444   -0.654927
      2          6           0        1.312274   -2.312674   -0.719902
      3          6           0        1.083487    0.183970   -0.621925
      4          8           0       -0.956653   -1.103343   -0.629417
      5          6           0       -1.459373   -1.079242   -1.967921
      6          1           0        2.248718   -2.152287   -0.227715
      7          1           0        0.785633   -3.107486   -0.234286
      8          1           0        1.487033   -2.573318   -1.742851
      9          1           0        2.151687    0.243006   -0.641010
     10          1           0        0.498924    1.079039   -0.576783
     11          1           0       -1.065777   -1.912416   -2.511799
     12          1           0       -2.527573   -1.138278   -1.948833
     13          1           0       -1.160931   -0.168998   -2.444669
 ---------------------------------------------------------------------
                    Distance matrix (angstroms):
                    1          2          3          4          5
     1  C    0.000000
     2  C    1.540000   0.000000
     3  C    1.355200   2.509019   0.000000
     4  O    1.430000   2.572683   2.412344   0.000000
     5  C    2.335180   3.280386   3.142220   1.430000   0.000000
     6  H    2.148263   1.070000   2.640315   3.396477   4.234346
     7  H    2.148263   1.070000   3.327561   2.684824   3.487021
     8  H    2.148263   1.070000   3.003658   3.061399   3.311228
     9  H    2.105120   2.691159   1.070000   3.387413   4.068020
    10  H    2.105120   3.490808   1.070000   2.623789   3.229299
    11  H    2.568651   3.004368   3.547646   2.051796   1.070000
    12  H    3.267757   4.199274   4.068019   2.051796   1.070000
    13  H    2.568651   3.699582   2.912798   2.051796   1.070000
                    6          7          8          9         10
     6  H    0.000000
     7  H    1.747303   0.000000
     8  H    1.747303   1.747303   0.000000
     9  H    2.432624   3.641061   3.096369   0.000000
    10  H    3.691219   4.210285   3.959266   1.853294   0.000000
    11  H    4.032425   3.169065   2.746801   4.300903   3.891192
    12  H    5.177202   4.218386   4.268353   5.051120   3.994834
    13  H    4.524823   4.160482   3.644862   3.794255   2.793155
                   11         12         13
    11  H    0.000000
    12  H    1.747303   0.000000
    13  H    1.747303   1.747303   0.000000
 Stoichiometry    C4H8O
 Framework group  C1[X(C4H8O)]
 Deg. of freedom    33
 Full point group                 C1      NOp   1
 Largest Abelian subgroup         C1      NOp   1
 Largest concise Abelian subgroup C1      NOp   1
                         Standard orientation:                         
 ---------------------------------------------------------------------
 Center     Atomic      Atomic             Coordinates (Angstroms)
 Number     Number       Type             X           Y           Z
 ---------------------------------------------------------------------
      1          6           0       -0.470606    0.128755   -0.158216
      2          6           0       -1.344919   -1.114141    0.091556
      3          6           0       -0.950878    1.363490    0.126980
      4          8           0        0.848037   -0.020012   -0.691085
      5          6           0        1.782048   -0.166120    0.381844
      6          1           0       -2.376283   -0.853847   -0.024352
      7          1           0       -1.088522   -1.877928   -0.612568
      8          1           0       -1.177428   -1.474218    1.085131
      9          1           0       -1.937556    1.474805    0.525697
     10          1           0       -0.343400    2.227060   -0.046560
     11          1           0        1.530537   -1.031782    0.958274
     12          1           0        2.768725   -0.277435   -0.016876
     13          1           0        1.745759    0.701532    1.006954
 ---------------------------------------------------------------------
 Rotational constants (GHZ):           7.5814677           4.0808550           3.0962334
 Leave Link  202 at Mon Oct 14 01:56:23 2019, MaxMem=  1342177280 cpu:               0.4 elap:               0.0
 (Enter /apps/cent7/gaussian/g16-A.03/g16-haswell/g16/l301.exe)
 Standard basis: 6-31G(d) (6D, 7F)
 Ernie: Thresh=  0.10000D-02 Tol=  0.10000D-05 Strict=F.
 There are    91 symmetry adapted cartesian basis functions of A   symmetry.
 There are    91 symmetry adapted basis functions of A   symmetry.
    91 basis functions,   172 primitive gaussians,    91 cartesian basis functions
    20 alpha electrons       20 beta electrons
       nuclear repulsion energy       178.0871446380 Hartrees.
 IExCor=  402 DFT=T Ex+Corr=B3LYP ExCW=0 ScaHFX=  0.200000
 ScaDFX=  0.800000  0.720000  1.000000  0.810000 ScalE2=  1.000000  1.000000
 IRadAn=      5 IRanWt=     -1 IRanGd=            0 ICorTp=0 IEmpDi=  4
 NAtoms=   13 NActive=   13 NUniq=   13 SFac= 1.00D+00 NAtFMM=   60 NAOKFM=F Big=F
 Integral buffers will be    131072 words long.
 Raffenetti 2 integral format.
 Two-electron integral symmetry is turned on.
 Leave Link  301 at Mon Oct 14 01:56:23 2019, MaxMem=  1342177280 cpu:               1.3 elap:               0.1
 (Enter /apps/cent7/gaussian/g16-A.03/g16-haswell/g16/l302.exe)
 NPDir=0 NMtPBC=     1 NCelOv=     1 NCel=       1 NClECP=     1 NCelD=      1
         NCelK=      1 NCelE2=     1 NClLst=     1 CellRange=     0.0.
 One-electron integrals computed using PRISM.
 One-electron integral symmetry used in STVInt
 NBasis=    91 RedAO= T EigKep=  4.38D-03  NBF=    91
 NBsUse=    91 1.00D-06 EigRej= -1.00D+00 NBFU=    91
 Precomputing XC quadrature grid using
 IXCGrd= 4 IRadAn=           5 IRanWt=          -1 IRanGd=           0 AccXCQ= 0.00D+00.
 Generated NRdTot=       0 NPtTot=           0 NUsed=           0 NTot=          32
 NSgBfM=    91    91    91    91    91 MxSgAt=    13 MxSgA2=    13.
 Leave Link  302 at Mon Oct 14 01:56:23 2019, MaxMem=  1342177280 cpu:               2.9 elap:               0.1
 (Enter /apps/cent7/gaussian/g16-A.03/g16-haswell/g16/l303.exe)
 DipDrv:  MaxL=1.
 Leave Link  303 at Mon Oct 14 01:56:23 2019, MaxMem=  1342177280 cpu:               0.8 elap:               0.1
 (Enter /apps/cent7/gaussian/g16-A.03/g16-haswell/g16/l401.exe)
 ExpMin= 1.61D-01 ExpMax= 5.48D+03 ExpMxC= 8.25D+02 IAcc=3 IRadAn=         5 AccDes= 0.00D+00
 Harris functional with IExCor=  402 and IRadAn=       5 diagonalized for initial guess.
 HarFok:  IExCor=  402 AccDes= 0.00D+00 IRadAn=         5 IDoV= 1 UseB2=F ITyADJ=14
 ICtDFT=  3500011 ScaDFX=  1.000000  1.000000  1.000000  1.000000
 FoFCou: FMM=F IPFlag=           0 FMFlag=      100000 FMFlg1=           0
         NFxFlg=           0 DoJE=T BraDBF=F KetDBF=T FulRan=T
         wScrn=  0.000000 ICntrl=       500 IOpCl=  0 I1Cent=   200000004 NGrid=           0
         NMat0=    1 NMatS0=      1 NMatT0=    0 NMatD0=    1 NMtDS0=    0 NMtDT0=    0
 Petite list used in FoFCou.
 Harris En= -232.472424612854    
 JPrj=0 DoOrth=F DoCkMO=F.
 Leave Link  401 at Mon Oct 14 01:56:23 2019, MaxMem=  1342177280 cpu:               4.8 elap:               0.2
 (Enter /apps/cent7/gaussian/g16-A.03/g16-haswell/g16/l502.exe)
 Integral symmetry usage will be decided dynamically.
 Closed shell SCF:
 Using DIIS extrapolation, IDIIS=  1040.
 NGot=  1342177280 LenX=  1342157286 LenY=  1342148564
 Requested convergence on RMS density matrix=1.00D-08 within 128 cycles.
 Requested convergence on MAX density matrix=1.00D-06.
 Requested convergence on             energy=1.00D-06.
 No special actions if energy rises.
 Fock matrices will be formed incrementally for  20 cycles.
 Integral accuracy reduced to 1.0D-05 until final iterations.

 Cycle   1  Pass 0  IDiag  1:
 FoFJK:  IHMeth= 1 ICntrl=       0 DoSepK=F KAlg= 0 I1Cent=           0 FoldK=F
 IRaf= 990000000 NMat=       1 IRICut=       1 DoRegI=T DoRafI=F ISym2E= 0 IDoP0=0 IntGTp=1.
 FoFCou: FMM=F IPFlag=           0 FMFlag=      100000 FMFlg1=           0
         NFxFlg=           0 DoJE=F BraDBF=F KetDBF=F FulRan=T
         wScrn=  0.000000 ICntrl=         0 IOpCl=  0 I1Cent=           0 NGrid=           0
         NMat0=    1 NMatS0=      1 NMatT0=    0 NMatD0=    1 NMtDS0=    0 NMtDT0=    0
 Symmetry not used in FoFCou.
 E= -232.241897204941    
 DIIS: error= 4.21D-02 at cycle   1 NSaved=   1.
 NSaved= 1 IEnMin= 1 EnMin= -232.241897204941     IErMin= 1 ErrMin= 4.21D-02
 ErrMax= 4.21D-02  0.00D+00 EMaxC= 1.00D-01 BMatC= 1.69D-01 BMatP= 1.69D-01
 IDIUse=3 WtCom= 5.79D-01 WtEn= 4.21D-01
 Coeff-Com:  0.100D+01
 Coeff-En:   0.100D+01
 Coeff:      0.100D+01
 Gap=     0.233 Goal=   None    Shift=    0.000
 GapD=    0.233 DampG=1.000 DampE=0.500 DampFc=0.5000 IDamp=-1.
 Damping current iteration by 5.00D-01
 RMSDP=8.85D-03 MaxDP=1.62D-01              OVMax= 2.28D-01

 Cycle   2  Pass 0  IDiag  1:
 RMSU=  4.36D-03    CP:  9.78D-01
 E= -232.323630353080     Delta-E=       -0.081733148139 Rises=F Damp=T
 DIIS: error= 6.71D-03 at cycle   2 NSaved=   2.
 NSaved= 2 IEnMin= 2 EnMin= -232.323630353080     IErMin= 2 ErrMin= 6.71D-03
 ErrMax= 6.71D-03  0.00D+00 EMaxC= 1.00D-01 BMatC= 8.26D-03 BMatP= 1.69D-01
 IDIUse=3 WtCom= 9.33D-01 WtEn= 6.71D-02
 Coeff-Com:  0.485D-01 0.951D+00
 Coeff-En:   0.618D-01 0.938D+00
 Coeff:      0.494D-01 0.951D+00
 Gap=     0.251 Goal=   None    Shift=    0.000
 RMSDP=1.67D-03 MaxDP=4.39D-02 DE=-8.17D-02 OVMax= 1.81D-01

 Cycle   3  Pass 0  IDiag  1:
 RMSU=  1.67D-03    CP:  9.76D-01  9.73D-01
 E= -232.408882097821     Delta-E=       -0.085251744741 Rises=F Damp=F
 DIIS: error= 7.00D-03 at cycle   3 NSaved=   3.
 NSaved= 3 IEnMin= 3 EnMin= -232.408882097821     IErMin= 2 ErrMin= 6.71D-03
 ErrMax= 7.00D-03  0.00D+00 EMaxC= 1.00D-01 BMatC= 7.37D-03 BMatP= 8.26D-03
 IDIUse=3 WtCom= 9.30D-01 WtEn= 7.00D-02
 Coeff-Com: -0.432D-02 0.483D+00 0.521D+00
 Coeff-En:   0.000D+00 0.000D+00 0.100D+01
 Coeff:     -0.401D-02 0.450D+00 0.554D+00
 Gap=     0.257 Goal=   None    Shift=    0.000
 RMSDP=1.31D-03 MaxDP=3.56D-02 DE=-8.53D-02 OVMax= 7.29D-02

 Cycle   4  Pass 0  IDiag  1:
 RMSU=  8.40D-04    CP:  9.77D-01  9.64D-01  3.95D-01
 E= -232.414310469770     Delta-E=       -0.005428371949 Rises=F Damp=F
 DIIS: error= 3.46D-03 at cycle   4 NSaved=   4.
 NSaved= 4 IEnMin= 4 EnMin= -232.414310469770     IErMin= 4 ErrMin= 3.46D-03
 ErrMax= 3.46D-03  0.00D+00 EMaxC= 1.00D-01 BMatC= 2.23D-03 BMatP= 7.37D-03
 IDIUse=3 WtCom= 9.65D-01 WtEn= 3.46D-02
 Coeff-Com: -0.198D-02 0.596D-01 0.356D+00 0.586D+00
 Coeff-En:   0.000D+00 0.000D+00 0.273D+00 0.727D+00
 Coeff:     -0.191D-02 0.576D-01 0.354D+00 0.591D+00
 Gap=     0.260 Goal=   None    Shift=    0.000
 RMSDP=5.06D-04 MaxDP=1.20D-02 DE=-5.43D-03 OVMax= 2.61D-02

 Cycle   5  Pass 0  IDiag  1:
 RMSU=  1.21D-04    CP:  9.77D-01  9.70D-01  6.03D-01  5.87D-01
 E= -232.416600313634     Delta-E=       -0.002289843865 Rises=F Damp=F
 DIIS: error= 3.93D-04 at cycle   5 NSaved=   5.
 NSaved= 5 IEnMin= 5 EnMin= -232.416600313634     IErMin= 5 ErrMin= 3.93D-04
 ErrMax= 3.93D-04  0.00D+00 EMaxC= 1.00D-01 BMatC= 4.01D-05 BMatP= 2.23D-03
 IDIUse=3 WtCom= 9.96D-01 WtEn= 3.93D-03
 Coeff-Com:  0.262D-03 0.901D-02 0.143D+00 0.269D+00 0.579D+00
 Coeff-En:   0.000D+00 0.000D+00 0.000D+00 0.000D+00 0.100D+01
 Coeff:      0.261D-03 0.897D-02 0.143D+00 0.268D+00 0.580D+00
 Gap=     0.261 Goal=   None    Shift=    0.000
 RMSDP=7.60D-05 MaxDP=1.30D-03 DE=-2.29D-03 OVMax= 2.14D-03

 Cycle   6  Pass 0  IDiag  1:
 RMSU=  5.04D-05    CP:  9.77D-01  9.70D-01  5.95D-01  6.13D-01  5.81D-01
 E= -232.416628666548     Delta-E=       -0.000028352913 Rises=F Damp=F
 DIIS: error= 1.89D-04 at cycle   6 NSaved=   6.
 NSaved= 6 IEnMin= 6 EnMin= -232.416628666548     IErMin= 6 ErrMin= 1.89D-04
 ErrMax= 1.89D-04  0.00D+00 EMaxC= 1.00D-01 BMatC= 7.01D-06 BMatP= 4.01D-05
 IDIUse=3 WtCom= 9.98D-01 WtEn= 1.89D-03
 Coeff-Com:  0.513D-03-0.152D-02 0.470D-01 0.945D-01 0.338D+00 0.521D+00
 Coeff-En:   0.000D+00 0.000D+00 0.000D+00 0.000D+00 0.104D+00 0.896D+00
 Coeff:      0.512D-03-0.152D-02 0.469D-01 0.943D-01 0.338D+00 0.522D+00
 Gap=     0.261 Goal=   None    Shift=    0.000
 RMSDP=2.58D-05 MaxDP=5.34D-04 DE=-2.84D-05 OVMax= 5.32D-04

 Cycle   7  Pass 0  IDiag  1:
 RMSU=  1.14D-05    CP:  9.77D-01  9.70D-01  5.98D-01  6.10D-01  6.54D-01
                    CP:  5.96D-01
 E= -232.416634033007     Delta-E=       -0.000005366459 Rises=F Damp=F
 DIIS: error= 2.90D-05 at cycle   7 NSaved=   7.
 NSaved= 7 IEnMin= 7 EnMin= -232.416634033007     IErMin= 7 ErrMin= 2.90D-05
 ErrMax= 2.90D-05  0.00D+00 EMaxC= 1.00D-01 BMatC= 2.11D-07 BMatP= 7.01D-06
 IDIUse=1 WtCom= 1.00D+00 WtEn= 0.00D+00
 Coeff-Com:  0.307D-03-0.117D-02 0.158D-01 0.319D-01 0.136D+00 0.250D+00
 Coeff-Com:  0.567D+00
 Coeff:      0.307D-03-0.117D-02 0.158D-01 0.319D-01 0.136D+00 0.250D+00
 Coeff:      0.567D+00
 Gap=     0.261 Goal=   None    Shift=    0.000
 RMSDP=5.97D-06 MaxDP=7.98D-05 DE=-5.37D-06 OVMax= 1.08D-04

 Initial convergence to 1.0D-05 achieved.  Increase integral accuracy.
 Cycle   8  Pass 1  IDiag  1:
 E= -232.416634375347     Delta-E=       -0.000000342340 Rises=F Damp=F
 DIIS: error= 8.01D-06 at cycle   1 NSaved=   1.
 NSaved= 1 IEnMin= 1 EnMin= -232.416634375347     IErMin= 1 ErrMin= 8.01D-06
 ErrMax= 8.01D-06  0.00D+00 EMaxC= 1.00D-01 BMatC= 1.36D-08 BMatP= 1.36D-08
 IDIUse=1 WtCom= 1.00D+00 WtEn= 0.00D+00
 Coeff-Com:  0.100D+01
 Coeff:      0.100D+01
 Gap=     0.261 Goal=   None    Shift=    0.000
 RMSDP=5.97D-06 MaxDP=7.98D-05 DE=-3.42D-07 OVMax= 5.24D-05

 Cycle   9  Pass 1  IDiag  1:
 RMSU=  2.86D-06    CP:  1.00D+00
 E= -232.416634368019     Delta-E=        0.000000007328 Rises=F Damp=F
 DIIS: error= 9.83D-06 at cycle   2 NSaved=   2.
 NSaved= 2 IEnMin= 1 EnMin= -232.416634375347     IErMin= 1 ErrMin= 8.01D-06
 ErrMax= 9.83D-06  0.00D+00 EMaxC= 1.00D-01 BMatC= 2.19D-08 BMatP= 1.36D-08
 IDIUse=1 WtCom= 1.00D+00 WtEn= 0.00D+00
 Coeff-Com:  0.562D+00 0.438D+00
 Coeff:      0.562D+00 0.438D+00
 Gap=     0.261 Goal=   None    Shift=    0.000
 RMSDP=1.64D-06 MaxDP=2.67D-05 DE= 7.33D-09 OVMax= 4.72D-05

 Cycle  10  Pass 1  IDiag  1:
 RMSU=  8.79D-07    CP:  1.00D+00  5.18D-01
 E= -232.416634386978     Delta-E=       -0.000000018959 Rises=F Damp=F
 DIIS: error= 1.94D-06 at cycle   3 NSaved=   3.
 NSaved= 3 IEnMin= 3 EnMin= -232.416634386978     IErMin= 3 ErrMin= 1.94D-06
 ErrMax= 1.94D-06  0.00D+00 EMaxC= 1.00D-01 BMatC= 7.23D-10 BMatP= 1.36D-08
 IDIUse=1 WtCom= 1.00D+00 WtEn= 0.00D+00
 Coeff-Com:  0.249D+00 0.235D+00 0.516D+00
 Coeff:      0.249D+00 0.235D+00 0.516D+00
 Gap=     0.261 Goal=   None    Shift=    0.000
 RMSDP=3.54D-07 MaxDP=7.81D-06 DE=-1.90D-08 OVMax= 1.69D-05

 Cycle  11  Pass 1  IDiag  1:
 RMSU=  3.01D-07    CP:  1.00D+00  5.46D-01  8.10D-01
 E= -232.416634387566     Delta-E=       -0.000000000588 Rises=F Damp=F
 DIIS: error= 7.21D-07 at cycle   4 NSaved=   4.
 NSaved= 4 IEnMin= 4 EnMin= -232.416634387566     IErMin= 4 ErrMin= 7.21D-07
 ErrMax= 7.21D-07  0.00D+00 EMaxC= 1.00D-01 BMatC= 8.67D-11 BMatP= 7.23D-10
 IDIUse=1 WtCom= 1.00D+00 WtEn= 0.00D+00
 Coeff-Com:  0.271D-01 0.467D-01 0.278D+00 0.648D+00
 Coeff:      0.271D-01 0.467D-01 0.278D+00 0.648D+00
 Gap=     0.261 Goal=   None    Shift=    0.000
 RMSDP=1.06D-07 MaxDP=3.05D-06 DE=-5.88D-10 OVMax= 6.00D-06

 Cycle  12  Pass 1  IDiag  1:
 RMSU=  5.28D-08    CP:  1.00D+00  5.50D-01  8.61D-01  7.35D-01
 E= -232.416634387653     Delta-E=       -0.000000000087 Rises=F Damp=F
 DIIS: error= 1.59D-07 at cycle   5 NSaved=   5.
 NSaved= 5 IEnMin= 5 EnMin= -232.416634387653     IErMin= 5 ErrMin= 1.59D-07
 ErrMax= 1.59D-07  0.00D+00 EMaxC= 1.00D-01 BMatC= 7.21D-12 BMatP= 8.67D-11
 IDIUse=1 WtCom= 1.00D+00 WtEn= 0.00D+00
 Coeff-Com: -0.912D-03 0.108D-01 0.110D+00 0.339D+00 0.541D+00
 Coeff:     -0.912D-03 0.108D-01 0.110D+00 0.339D+00 0.541D+00
 Gap=     0.261 Goal=   None    Shift=    0.000
 RMSDP=3.00D-08 MaxDP=6.79D-07 DE=-8.66D-11 OVMax= 1.18D-06

 Cycle  13  Pass 1  IDiag  1:
 RMSU=  1.78D-08    CP:  1.00D+00  5.53D-01  8.65D-01  7.66D-01  6.09D-01
 E= -232.416634387660     Delta-E=       -0.000000000007 Rises=F Damp=F
 DIIS: error= 5.78D-08 at cycle   6 NSaved=   6.
 NSaved= 6 IEnMin= 6 EnMin= -232.416634387660     IErMin= 6 ErrMin= 5.78D-08
 ErrMax= 5.78D-08  0.00D+00 EMaxC= 1.00D-01 BMatC= 9.17D-13 BMatP= 7.21D-12
 IDIUse=1 WtCom= 1.00D+00 WtEn= 0.00D+00
 Coeff-Com: -0.387D-02 0.855D-03 0.295D-01 0.125D+00 0.309D+00 0.539D+00
 Coeff:     -0.387D-02 0.855D-03 0.295D-01 0.125D+00 0.309D+00 0.539D+00
 Gap=     0.261 Goal=   None    Shift=    0.000
 RMSDP=8.70D-09 MaxDP=1.95D-07 DE=-7.28D-12 OVMax= 3.20D-07

 SCF Done:  E(RB3LYP) =  -232.416634388     A.U. after   13 cycles
            NFock= 13  Conv=0.87D-08     -V/T= 2.0091
 KE= 2.303130816924D+02 PE=-8.969275888556D+02 EE= 2.561107281376D+02
 Leave Link  502 at Mon Oct 14 01:56:25 2019, MaxMem=  1342177280 cpu:              33.8 elap:               1.4
 (Enter /apps/cent7/gaussian/g16-A.03/g16-haswell/g16/l601.exe)
 Copying SCF densities to generalized density rwf, IOpCl= 0 IROHF=0.

 **********************************************************************

            Population analysis using the SCF density.

 **********************************************************************

 Orbital symmetries:
       Occupied  (A) (A) (A) (A) (A) (A) (A) (A) (A) (A) (A) (A)
                 (A) (A) (A) (A) (A) (A) (A) (A)
       Virtual   (A) (A) (A) (A) (A) (A) (A) (A) (A) (A) (A) (A)
                 (A) (A) (A) (A) (A) (A) (A) (A) (A) (A) (A) (A)
                 (A) (A) (A) (A) (A) (A) (A) (A) (A) (A) (A) (A)
                 (A) (A) (A) (A) (A) (A) (A) (A) (A) (A) (A) (A)
                 (A) (A) (A) (A) (A) (A) (A) (A) (A) (A) (A) (A)
                 (A) (A) (A) (A) (A) (A) (A) (A) (A) (A) (A)
 The electronic state is 1-A.
 Alpha  occ. eigenvalues --  -19.15377 -10.24088 -10.22093 -10.17970 -10.16849
 Alpha  occ. eigenvalues --   -1.02599  -0.77524  -0.69432  -0.68063  -0.54415
 Alpha  occ. eigenvalues --   -0.47621  -0.46319  -0.45389  -0.42042  -0.41157
 Alpha  occ. eigenvalues --   -0.40601  -0.36796  -0.33693  -0.26107  -0.23873
 Alpha virt. eigenvalues --    0.02206   0.09209   0.13102   0.14131   0.14800
 Alpha virt. eigenvalues --    0.16412   0.17999   0.18964   0.19730   0.20136
 Alpha virt. eigenvalues --    0.22411   0.31141   0.34901   0.50899   0.52342
 Alpha virt. eigenvalues --    0.54110   0.54596   0.55912   0.59310   0.62897
 Alpha virt. eigenvalues --    0.63918   0.66695   0.71157   0.73940   0.80642
 Alpha virt. eigenvalues --    0.85582   0.86505   0.88405   0.90194   0.91808
 Alpha virt. eigenvalues --    0.94738   0.97106   0.97772   0.99644   1.09197
 Alpha virt. eigenvalues --    1.11734   1.16456   1.22403   1.28863   1.38555
 Alpha virt. eigenvalues --    1.43350   1.44723   1.50498   1.62260   1.68232
 Alpha virt. eigenvalues --    1.79603   1.83530   1.86617   1.94251   1.97419
 Alpha virt. eigenvalues --    2.01840   2.06403   2.14883   2.18143   2.22004
 Alpha virt. eigenvalues --    2.22750   2.28909   2.31275   2.38357   2.44120
 Alpha virt. eigenvalues --    2.45954   2.55826   2.68497   2.78874   2.88614
 Alpha virt. eigenvalues --    3.00909   3.97962   4.13465   4.21338   4.26008
 Alpha virt. eigenvalues --    4.51335
          Condensed to atoms (all electrons):
               1          2          3          4          5          6
     1  C    4.531285   0.363789   0.643120   0.284990  -0.043525  -0.022632
     2  C    0.363789   5.193054  -0.087867  -0.059955  -0.000866   0.368385
     3  C    0.643120  -0.087867   5.165263  -0.055462  -0.009345  -0.002065
     4  O    0.284990  -0.059955  -0.055462   8.183628   0.251156   0.002175
     5  C   -0.043525  -0.000866  -0.009345   0.251156   4.887602   0.000052
     6  H   -0.022632   0.368385  -0.002065   0.002175   0.000052   0.536584
     7  H   -0.027274   0.360396   0.004317   0.003190  -0.000284  -0.025146
     8  H   -0.028974   0.367418  -0.003372   0.001236   0.000571  -0.028274
     9  H   -0.021637  -0.005437   0.353438   0.003450  -0.000072   0.002230
    10  H   -0.022033   0.006555   0.353094  -0.002475   0.000177   0.000018
    11  H   -0.006731   0.006456  -0.000972  -0.041329   0.369440  -0.000190
    12  H    0.005727  -0.000239   0.000151  -0.028578   0.379684   0.000004
    13  H   -0.003147  -0.001139   0.010284  -0.041933   0.366687   0.000017
               7          8          9         10         11         12
     1  C   -0.027274  -0.028974  -0.021637  -0.022033  -0.006731   0.005727
     2  C    0.360396   0.367418  -0.005437   0.006555   0.006456  -0.000239
     3  C    0.004317  -0.003372   0.353438   0.353094  -0.000972   0.000151
     4  O    0.003190   0.001236   0.003450  -0.002475  -0.041329  -0.028578
     5  C   -0.000284   0.000571  -0.000072   0.000177   0.369440   0.379684
     6  H   -0.025146  -0.028274   0.002230   0.000018  -0.000190   0.000004
     7  H    0.545540  -0.030732   0.000091  -0.000209  -0.000063  -0.000006
     8  H   -0.030732   0.554921   0.000378  -0.000169   0.000223  -0.000051
     9  H    0.000091   0.000378   0.567492  -0.037958   0.000052   0.000009
    10  H   -0.000209  -0.000169  -0.037958   0.558611   0.000228  -0.000102
    11  H   -0.000063   0.000223   0.000052   0.000228   0.616498  -0.035040
    12  H   -0.000006  -0.000051   0.000009  -0.000102  -0.035040   0.551729
    13  H    0.000161  -0.000012  -0.000486   0.000641  -0.049007  -0.033924
              13
     1  C   -0.003147
     2  C   -0.001139
     3  C    0.010284
     4  O   -0.041933
     5  C    0.366687
     6  H    0.000017
     7  H    0.000161
     8  H   -0.000012
     9  H   -0.000486
    10  H    0.000641
    11  H   -0.049007
    12  H   -0.033924
    13  H    0.605228
 Mulliken charges:
               1
     1  C    0.347041
     2  C   -0.510551
     3  C   -0.370584
     4  O   -0.500092
     5  C   -0.201276
     6  H    0.168843
     7  H    0.170017
     8  H    0.166835
     9  H    0.138450
    10  H    0.143620
    11  H    0.140434
    12  H    0.160636
    13  H    0.146628
 Sum of Mulliken charges =  -0.00000
 Mulliken charges with hydrogens summed into heavy atoms:
               1
     1  C    0.347041
     2  C   -0.004856
     3  C   -0.088515
     4  O   -0.500092
     5  C    0.246422
 Electronic spatial extent (au):  <R**2>=            462.4727
 Charge=             -0.0000 electrons
 Dipole moment (field-independent basis, Debye):
    X=             -0.0889    Y=             -0.5144    Z=              1.4872  Tot=              1.5761
 Quadrupole moment (field-independent basis, Debye-Ang):
   XX=            -27.9767   YY=            -30.4865   ZZ=            -33.3732
   XY=              0.2070   XZ=              1.0529   YZ=              0.0865
 Traceless Quadrupole moment (field-independent basis, Debye-Ang):
   XX=              2.6355   YY=              0.1256   ZZ=             -2.7610
   XY=              0.2070   XZ=              1.0529   YZ=              0.0865
 Octapole moment (field-independent basis, Debye-Ang**2):
  XXX=              7.6629  YYY=              0.8783  ZZZ=             -1.2291  XYY=              1.5348
  XXY=             -0.6763  XXZ=              1.6087  XZZ=              0.9826  YZZ=             -2.0890
  YYZ=             -0.5527  XYZ=             -0.9213
 Hexadecapole moment (field-independent basis, Debye-Ang**3):
 XXXX=           -319.6257 YYYY=           -189.5630 ZZZZ=            -69.8517 XXXY=             -3.3950
 XXXZ=             -4.6001 YYYX=              0.9568 YYYZ=              0.8854 ZZZX=             -1.1786
 ZZZY=             -0.8482 XXYY=            -91.8017 XXZZ=            -71.3409 YYZZ=            -44.1892
 XXYZ=              2.4756 YYXZ=             -0.9959 ZZXY=              1.5233
 N-N= 1.780871446380D+02 E-N=-8.969275886107D+02  KE= 2.303130816924D+02
 No NMR shielding tensors so no spin-rotation constants.
 Leave Link  601 at Mon Oct 14 01:56:25 2019, MaxMem=  1342177280 cpu:               2.1 elap:               0.1
 (Enter /apps/cent7/gaussian/g16-A.03/g16-haswell/g16/l701.exe)
 ... and contract with generalized density number  0.
 Compute integral first derivatives.
 Leave Link  701 at Mon Oct 14 01:56:25 2019, MaxMem=  1342177280 cpu:               2.8 elap:               0.2
 (Enter /apps/cent7/gaussian/g16-A.03/g16-haswell/g16/l702.exe)
 L702 exits ... SP integral derivatives will be done elsewhere.
 Leave Link  702 at Mon Oct 14 01:56:25 2019, MaxMem=  1342177280 cpu:               0.5 elap:               0.0
 (Enter /apps/cent7/gaussian/g16-A.03/g16-haswell/g16/l703.exe)
 Integral derivatives from FoFJK, PRISM(SPDF).
 Compute integral first derivatives, UseDBF=F ICtDFT=           0.
 Calling FoFJK, ICntrl=      2127 FMM=F ISym2X=0 I1Cent= 0 IOpClX= 0 NMat=1 NMatS=1 NMatT=0.
 FoFJK:  IHMeth= 1 ICntrl=    2127 DoSepK=F KAlg= 0 I1Cent=           0 FoldK=F
 IRaf=         0 NMat=       1 IRICut=       1 DoRegI=T DoRafI=F ISym2E= 0 IDoP0=0 IntGTp=1.
 FoFCou: FMM=F IPFlag=           0 FMFlag=      100000 FMFlg1=         800
         NFxFlg=           0 DoJE=F BraDBF=F KetDBF=F FulRan=T
         wScrn=  0.000000 ICntrl=      2127 IOpCl=  0 I1Cent=           0 NGrid=           0
         NMat0=    1 NMatS0=      1 NMatT0=    0 NMatD0=    1 NMtDS0=    0 NMtDT0=    0
 Symmetry not used in FoFCou.
 Leave Link  703 at Mon Oct 14 01:56:25 2019, MaxMem=  1342177280 cpu:               8.9 elap:               0.4
 (Enter /apps/cent7/gaussian/g16-A.03/g16-haswell/g16/l716.exe)
 Dipole        =-3.49948070D-02-2.02367246D-01 5.85104468D-01
 ***** Axes restored to original set *****
 -------------------------------------------------------------------
 Center     Atomic                   Forces (Hartrees/Bohr)
 Number     Number              X              Y              Z
 -------------------------------------------------------------------
      1        6           0.005981767    0.017561569    0.005569484
      2        6          -0.029866807    0.023952433    0.002082143
      3        6          -0.024090241   -0.029630585    0.000605780
      4        8           0.030580283   -0.002334562   -0.001717194
      5        6           0.007549781   -0.000986759    0.015526508
      6        1           0.014090191    0.002012614    0.005941347
      7        1          -0.006793752   -0.014564733    0.006988891
      8        1           0.003966245   -0.008596370   -0.016590951
      9        1           0.010290192    0.002613408    0.001248797
     10        1          -0.003793460    0.010981509    0.000006376
     11        1           0.004501872   -0.014669497   -0.013717815
     12        1          -0.016226340   -0.001742886    0.005020714
     13        1           0.003810270    0.015403861   -0.010964080
 -------------------------------------------------------------------
 Cartesian Forces:  Max     0.030580283 RMS     0.013197628
 Leave Link  716 at Mon Oct 14 01:56:26 2019, MaxMem=  1342177280 cpu:               0.6 elap:               0.0
 (Enter /apps/cent7/gaussian/g16-A.03/g16-haswell/g16/l103.exe)

 GradGradGradGradGradGradGradGradGradGradGradGradGradGradGradGradGradGrad
 Berny optimization.
 FormGI is forming the generalized inverse of G from B-inverse, IUseBI=4.
 Internal  Forces:  Max     0.030030581 RMS     0.010393366
 Search for a local minimum.
 Step number   1 out of a maximum of   56
 All quantities printed in internal units (Hartrees-Bohrs-Radians)
 RMS Force = .10393D-01 SwitMx=.10000D-02 MixMth= 1
 Mixed Optimization -- RFO/linear search
 Second derivative matrix not updated -- first step.
 ITU=  0
     Eigenvalues ---    0.00237   0.01228   0.01295   0.01295   0.02681
     Eigenvalues ---    0.02681   0.07243   0.07243   0.10344   0.10344
     Eigenvalues ---    0.16000   0.16000   0.16000   0.16000   0.16000
     Eigenvalues ---    0.16000   0.16000   0.16000   0.25000   0.25000
     Eigenvalues ---    0.25000   0.28519   0.37230   0.37230   0.37230
     Eigenvalues ---    0.37230   0.37230   0.37230   0.37230   0.37230
     Eigenvalues ---    0.40989   0.40989   0.53930
 RFO step:  Lambda=-1.49038372D-02 EMin= 2.36824247D-03
 Linear search not attempted -- first point.
 Iteration  1 RMS(Cart)=  0.07658180 RMS(Int)=  0.00290711
 Iteration  2 RMS(Cart)=  0.00423598 RMS(Int)=  0.00033009
 Iteration  3 RMS(Cart)=  0.00001007 RMS(Int)=  0.00033000
 Iteration  4 RMS(Cart)=  0.00000001 RMS(Int)=  0.00033000
 ITry= 1 IFail=0 DXMaxC= 1.89D-01 DCOld= 1.00D+10 DXMaxT= 3.00D-01 DXLimC= 3.00D+00 Rises=F
 Variable       Old X    -DE/DX   Delta X   Delta X   Delta X     New X
                                 (Linear)    (Quad)   (Total)
    R1        2.91018  -0.01244   0.00000  -0.04146  -0.04146   2.86872
    R2        2.56096  -0.02221   0.00000  -0.04007  -0.04007   2.52089
    R3        2.70231  -0.03003   0.00000  -0.07069  -0.07069   2.63161
    R4        2.02201   0.01537   0.00000   0.03968   0.03968   2.06169
    R5        2.02201   0.01733   0.00000   0.04477   0.04477   2.06678
    R6        2.02201   0.01860   0.00000   0.04805   0.04805   2.07005
    R7        2.02201   0.01039   0.00000   0.02685   0.02685   2.04885
    R8        2.02201   0.01126   0.00000   0.02908   0.02908   2.05108
    R9        2.70231   0.00396   0.00000   0.00933   0.00933   2.71164
   R10        2.02201   0.02005   0.00000   0.05178   0.05178   2.07379
   R11        2.02201   0.01638   0.00000   0.04232   0.04232   2.06432
   R12        2.02201   0.01905   0.00000   0.04920   0.04920   2.07121
    A1        2.09440   0.01956   0.00000   0.07385   0.07379   2.16818
    A2        2.09440  -0.01879   0.00000  -0.07093  -0.07098   2.02342
    A3        2.09440  -0.00078   0.00000  -0.00293  -0.00299   2.09141
    A4        1.91063  -0.00037   0.00000  -0.00211  -0.00214   1.90850
    A5        1.91063   0.00260   0.00000   0.01470   0.01458   1.92522
    A6        1.91063   0.00517   0.00000   0.02970   0.02956   1.94019
    A7        1.91063  -0.00119   0.00000  -0.00710  -0.00711   1.90352
    A8        1.91063  -0.00231   0.00000  -0.01286  -0.01290   1.89773
    A9        1.91063  -0.00390   0.00000  -0.02232  -0.02255   1.88809
   A10        2.09440   0.00092   0.00000   0.00525   0.00521   2.09960
   A11        2.09440   0.00240   0.00000   0.01371   0.01367   2.10806
   A12        2.09440  -0.00332   0.00000  -0.01897  -0.01901   2.07538
   A13        1.91063   0.01514   0.00000   0.05715   0.05715   1.96778
   A14        1.91063   0.00762   0.00000   0.04570   0.04526   1.95590
   A15        1.91063  -0.00989   0.00000  -0.06095  -0.06071   1.84992
   A16        1.91063   0.00513   0.00000   0.03163   0.03110   1.94173
   A17        1.91063  -0.00098   0.00000  -0.01021  -0.00987   1.90076
   A18        1.91063  -0.00233   0.00000  -0.00450  -0.00556   1.90508
   A19        1.91063   0.00045   0.00000  -0.00168  -0.00155   1.90909
    D1        0.52360  -0.00091   0.00000  -0.04953  -0.04946   0.47414
    D2        2.61799  -0.00099   0.00000  -0.05052  -0.05055   2.56744
    D3       -1.57080  -0.00101   0.00000  -0.05067  -0.05055  -1.62134
    D4       -2.61799  -0.00035   0.00000  -0.02893  -0.02897  -2.64696
    D5       -0.52360  -0.00043   0.00000  -0.02992  -0.03006  -0.55366
    D6        1.57080  -0.00045   0.00000  -0.03007  -0.03006   1.54074
    D7       -0.00000  -0.00091   0.00000  -0.01815  -0.01782  -0.01783
    D8        3.14159  -0.00014   0.00000   0.00024   0.00057  -3.14103
    D9        3.14159  -0.00147   0.00000  -0.03874  -0.03907   3.10252
   D10       -0.00000  -0.00070   0.00000  -0.02035  -0.02067  -0.02068
   D11       -1.57080   0.00142   0.00000   0.05064   0.05117  -1.51963
   D12        1.57080   0.00198   0.00000   0.07123   0.07070   1.64150
   D13        1.04720   0.00248   0.00000   0.02024   0.02133   1.06853
   D14        3.14159  -0.00010   0.00000  -0.00160  -0.00176   3.13983
   D15       -1.04720  -0.00247   0.00000  -0.02161  -0.02254  -1.06974
         Item               Value     Threshold  Converged?
 Maximum Force            0.030031     0.000450     NO 
 RMS     Force            0.010393     0.000300     NO 
 Maximum Displacement     0.189259     0.001800     NO 
 RMS     Displacement     0.078017     0.001200     NO 
 Predicted change in Energy=-7.955665D-03
 Lowest energy point so far.  Saving SCF results.
 GradGradGradGradGradGradGradGradGradGradGradGradGradGradGradGradGradGrad

 Leave Link  103 at Mon Oct 14 01:56:26 2019, MaxMem=  1342177280 cpu:               0.7 elap:               0.1
 (Enter /apps/cent7/gaussian/g16-A.03/g16-haswell/g16/l202.exe)
                          Input orientation:                          
 ---------------------------------------------------------------------
 Center     Atomic      Atomic             Coordinates (Angstroms)
 Number     Number       Type             X           Y           Z
 ---------------------------------------------------------------------
      1          6           0        0.517209   -0.980935   -0.665333
      2          6           0        1.271492   -2.296255   -0.739464
      3          6           0        1.101483    0.215582   -0.584601
      4          8           0       -0.872184   -1.075111   -0.660037
      5          6           0       -1.430856   -1.111249   -1.981259
      6          1           0        2.240902   -2.185023   -0.251456
      7          1           0        0.706912   -3.086436   -0.236450
      8          1           0        1.433878   -2.601011   -1.779035
      9          1           0        2.182240    0.295439   -0.551589
     10          1           0        0.506559    1.121975   -0.533778
     11          1           0       -1.081316   -1.980277   -2.553015
     12          1           0       -2.512552   -1.186594   -1.848681
     13          1           0       -1.195378   -0.196578   -2.537341
 ---------------------------------------------------------------------
                    Distance matrix (angstroms):
                    1          2          3          4          5
     1  C    0.000000
     2  C    1.518060   0.000000
     3  C    1.333997   2.522342   0.000000
     4  O    1.392590   2.468369   2.359436   0.000000
     5  C    2.354485   3.201402   3.181803   1.434939   0.000000
     6  H    2.142952   1.091000   2.678090   3.330187   4.198454
     7  H    2.157095   1.093690   3.343683   2.591987   3.393489
     8  H    2.169162   1.095425   3.077395   2.983027   3.235272
     9  H    2.101047   2.753477   1.084206   3.349578   4.132455
    10  H    2.107047   3.508806   1.085387   2.596933   3.291818
    11  H    2.667829   2.987393   3.668932   2.108656   1.097403
    12  H    3.259150   4.096425   4.077407   2.028821   1.092392
    13  H    2.655670   3.704923   3.042801   2.097748   1.096038
                    6          7          8          9         10
     6  H    0.000000
     7  H    1.779297   0.000000
     8  H    1.777030   1.773044   0.000000
     9  H    2.499243   3.703104   3.233589   0.000000
    10  H    3.744848   4.223655   4.033759   1.868525   0.000000
    11  H    4.046756   3.128549   2.703804   4.453694   4.027733
    12  H    5.113054   4.071073   4.192819   5.091163   4.021628
    13  H    4.581180   4.155007   3.642707   3.948873   2.940993
                   11         12         13
    11  H    0.000000
    12  H    1.781700   0.000000
    13  H    1.787411   1.785870   0.000000
 Stoichiometry    C4H8O
 Framework group  C1[X(C4H8O)]
 Deg. of freedom    33
 Full point group                 C1      NOp   1
 RotChk:  IX=0 Diff= 9.35D-02
 Largest Abelian subgroup         C1      NOp   1
 Largest concise Abelian subgroup C1      NOp   1
                         Standard orientation:                         
 ---------------------------------------------------------------------
 Center     Atomic      Atomic             Coordinates (Angstroms)
 Number     Number       Type             X           Y           Z
 ---------------------------------------------------------------------
      1          6           0       -0.500942    0.135214   -0.129750
      2          6           0       -1.213563   -1.189227    0.076482
      3          6           0       -1.037766    1.326169    0.140425
      4          8           0        0.784976    0.058981   -0.658816
      5          6           0        1.790387   -0.116595    0.349832
      6          1           0       -2.290848   -1.036312   -0.003235
      7          1           0       -0.898292   -1.911930   -0.681452
      8          1           0       -0.989928   -1.609241    1.063159
      9          1           0       -2.051539    1.396142    0.518409
     10          1           0       -0.476795    2.239725   -0.029253
     11          1           0        1.650698   -1.047784    0.913452
     12          1           0        2.744067   -0.163724   -0.180823
     13          1           0        1.804137    0.727913    1.048342
 ---------------------------------------------------------------------
 Rotational constants (GHZ):           7.5205096           4.2184671           3.1259260
 Leave Link  202 at Mon Oct 14 01:56:26 2019, MaxMem=  1342177280 cpu:               0.3 elap:               0.0
 (Enter /apps/cent7/gaussian/g16-A.03/g16-haswell/g16/l301.exe)
 Standard basis: 6-31G(d) (6D, 7F)
 Ernie: Thresh=  0.10000D-02 Tol=  0.10000D-05 Strict=F.
 There are    91 symmetry adapted cartesian basis functions of A   symmetry.
 There are    91 symmetry adapted basis functions of A   symmetry.
    91 basis functions,   172 primitive gaussians,    91 cartesian basis functions
    20 alpha electrons       20 beta electrons
       nuclear repulsion energy       178.8349617022 Hartrees.
 IExCor=  402 DFT=T Ex+Corr=B3LYP ExCW=0 ScaHFX=  0.200000
 ScaDFX=  0.800000  0.720000  1.000000  0.810000 ScalE2=  1.000000  1.000000
 IRadAn=      5 IRanWt=     -1 IRanGd=            0 ICorTp=0 IEmpDi=  4
 NAtoms=   13 NActive=   13 NUniq=   13 SFac= 1.00D+00 NAtFMM=   60 NAOKFM=F Big=F
 Integral buffers will be    131072 words long.
 Raffenetti 2 integral format.
 Two-electron integral symmetry is turned on.
 Leave Link  301 at Mon Oct 14 01:56:26 2019, MaxMem=  1342177280 cpu:               1.2 elap:               0.1
 (Enter /apps/cent7/gaussian/g16-A.03/g16-haswell/g16/l302.exe)
 NPDir=0 NMtPBC=     1 NCelOv=     1 NCel=       1 NClECP=     1 NCelD=      1
         NCelK=      1 NCelE2=     1 NClLst=     1 CellRange=     0.0.
 One-electron integrals computed using PRISM.
 One-electron integral symmetry used in STVInt
 NBasis=    91 RedAO= T EigKep=  3.98D-03  NBF=    91
 NBsUse=    91 1.00D-06 EigRej= -1.00D+00 NBFU=    91
 Precomputing XC quadrature grid using
 IXCGrd= 4 IRadAn=           5 IRanWt=          -1 IRanGd=           0 AccXCQ= 0.00D+00.
 Generated NRdTot=       0 NPtTot=           0 NUsed=           0 NTot=          32
 NSgBfM=    91    91    91    91    91 MxSgAt=    13 MxSgA2=    13.
 Leave Link  302 at Mon Oct 14 01:56:26 2019, MaxMem=  1342177280 cpu:               2.6 elap:               0.1
 (Enter /apps/cent7/gaussian/g16-A.03/g16-haswell/g16/l303.exe)
 DipDrv:  MaxL=1.
 Leave Link  303 at Mon Oct 14 01:56:26 2019, MaxMem=  1342177280 cpu:               0.5 elap:               0.0
 (Enter /apps/cent7/gaussian/g16-A.03/g16-haswell/g16/l401.exe)
 Initial guess from the checkpoint file:  "mop.chk"
 B after Tr=    -0.000000   -0.000000   -0.000000
         Rot=    0.999472   -0.012830   -0.007708   -0.028826 Ang=  -3.72 deg.
 Guess basis will be translated and rotated to current coordinates.
 JPrj=2 DoOrth=T DoCkMO=T.
 Generating alternative initial guess.
 ExpMin= 1.61D-01 ExpMax= 5.48D+03 ExpMxC= 8.25D+02 IAcc=2 IRadAn=         4 AccDes= 0.00D+00
 Harris functional with IExCor=  402 and IRadAn=       4 diagonalized for initial guess.
 HarFok:  IExCor=  402 AccDes= 0.00D+00 IRadAn=         4 IDoV= 1 UseB2=F ITyADJ=14
 ICtDFT=  3500011 ScaDFX=  1.000000  1.000000  1.000000  1.000000
 FoFCou: FMM=F IPFlag=           0 FMFlag=      100000 FMFlg1=           0
         NFxFlg=           0 DoJE=T BraDBF=F KetDBF=T FulRan=T
         wScrn=  0.000000 ICntrl=       500 IOpCl=  0 I1Cent=   200000004 NGrid=           0
         NMat0=    1 NMatS0=      1 NMatT0=    0 NMatD0=    1 NMtDS0=    0 NMtDT0=    0
 Petite list used in FoFCou.
 Harris En= -232.470765880515    
 Leave Link  401 at Mon Oct 14 01:56:26 2019, MaxMem=  1342177280 cpu:               4.9 elap:               0.2
 (Enter /apps/cent7/gaussian/g16-A.03/g16-haswell/g16/l502.exe)
 Integral symmetry usage will be decided dynamically.
 Closed shell SCF:
 Using DIIS extrapolation, IDIIS=  1040.
 NGot=  1342177280 LenX=  1342157286 LenY=  1342148564
 Requested convergence on RMS density matrix=1.00D-08 within 128 cycles.
 Requested convergence on MAX density matrix=1.00D-06.
 Requested convergence on             energy=1.00D-06.
 No special actions if energy rises.
 Fock matrices will be formed incrementally for  20 cycles.
 Integral accuracy reduced to 1.0D-05 until final iterations.

 Cycle   1  Pass 0  IDiag  1:
 FoFJK:  IHMeth= 1 ICntrl=       0 DoSepK=F KAlg= 0 I1Cent=           0 FoldK=F
 IRaf= 990000000 NMat=       1 IRICut=       1 DoRegI=T DoRafI=F ISym2E= 0 IDoP0=0 IntGTp=1.
 FoFCou: FMM=F IPFlag=           0 FMFlag=      100000 FMFlg1=           0
         NFxFlg=           0 DoJE=F BraDBF=F KetDBF=F FulRan=T
         wScrn=  0.000000 ICntrl=         0 IOpCl=  0 I1Cent=           0 NGrid=           0
         NMat0=    1 NMatS0=      1 NMatT0=    0 NMatD0=    1 NMtDS0=    0 NMtDT0=    0
 Symmetry not used in FoFCou.
 E= -232.418576180277    
 DIIS: error= 6.23D-03 at cycle   1 NSaved=   1.
 NSaved= 1 IEnMin= 1 EnMin= -232.418576180277     IErMin= 1 ErrMin= 6.23D-03
 ErrMax= 6.23D-03  0.00D+00 EMaxC= 1.00D-01 BMatC= 3.38D-03 BMatP= 3.38D-03
 IDIUse=3 WtCom= 9.38D-01 WtEn= 6.23D-02
 Coeff-Com:  0.100D+01
 Coeff-En:   0.100D+01
 Coeff:      0.100D+01
 Gap=     1.624 Goal=   None    Shift=    0.000
 GapD=    1.624 DampG=2.000 DampE=1.000 DampFc=2.0000 IDamp=-1.
 RMSDP=1.04D-03 MaxDP=1.21D-02              OVMax= 2.53D-02

 Cycle   2  Pass 0  IDiag  1:
 RMSU=  1.04D-03    CP:  9.99D-01
 E= -232.424518856966     Delta-E=       -0.005942676689 Rises=F Damp=F
 DIIS: error= 2.31D-03 at cycle   2 NSaved=   2.
 NSaved= 2 IEnMin= 2 EnMin= -232.424518856966     IErMin= 2 ErrMin= 2.31D-03
 ErrMax= 2.31D-03  0.00D+00 EMaxC= 1.00D-01 BMatC= 4.71D-04 BMatP= 3.38D-03
 IDIUse=3 WtCom= 9.77D-01 WtEn= 2.31D-02
 Coeff-Com:  0.149D+00 0.851D+00
 Coeff-En:   0.000D+00 0.100D+01
 Coeff:      0.146D+00 0.854D+00
 Gap=     0.267 Goal=   None    Shift=    0.000
 RMSDP=3.63D-04 MaxDP=6.93D-03 DE=-5.94D-03 OVMax= 7.46D-03

 Cycle   3  Pass 0  IDiag  1:
 RMSU=  3.62D-04    CP:  9.99D-01  9.84D-01
 E= -232.424645679288     Delta-E=       -0.000126822322 Rises=F Damp=F
 DIIS: error= 2.02D-03 at cycle   3 NSaved=   3.
 NSaved= 3 IEnMin= 3 EnMin= -232.424645679288     IErMin= 3 ErrMin= 2.02D-03
 ErrMax= 2.02D-03  0.00D+00 EMaxC= 1.00D-01 BMatC= 3.88D-04 BMatP= 4.71D-04
 IDIUse=3 WtCom= 9.80D-01 WtEn= 2.02D-02
 Coeff-Com: -0.358D-01 0.481D+00 0.555D+00
 Coeff-En:   0.000D+00 0.425D+00 0.575D+00
 Coeff:     -0.351D-01 0.480D+00 0.555D+00
 Gap=     0.267 Goal=   None    Shift=    0.000
 RMSDP=1.80D-04 MaxDP=3.21D-03 DE=-1.27D-04 OVMax= 5.26D-03

 Cycle   4  Pass 0  IDiag  1:
 RMSU=  9.32D-05    CP:  9.99D-01  1.03D+00  5.93D-01
 E= -232.424992771724     Delta-E=       -0.000347092436 Rises=F Damp=F
 DIIS: error= 2.83D-04 at cycle   4 NSaved=   4.
 NSaved= 4 IEnMin= 4 EnMin= -232.424992771724     IErMin= 4 ErrMin= 2.83D-04
 ErrMax= 2.83D-04  0.00D+00 EMaxC= 1.00D-01 BMatC= 1.40D-05 BMatP= 3.88D-04
 IDIUse=3 WtCom= 9.97D-01 WtEn= 2.83D-03
 Coeff-Com: -0.214D-01 0.244D+00 0.304D+00 0.473D+00
 Coeff-En:   0.000D+00 0.000D+00 0.000D+00 0.100D+01
 Coeff:     -0.214D-01 0.244D+00 0.303D+00 0.474D+00
 Gap=     0.267 Goal=   None    Shift=    0.000
 RMSDP=5.03D-05 MaxDP=8.79D-04 DE=-3.47D-04 OVMax= 2.20D-03

 Cycle   5  Pass 0  IDiag  1:
 RMSU=  3.18D-05    CP:  9.99D-01  1.03D+00  6.02D-01  5.97D-01
 E= -232.425004460047     Delta-E=       -0.000011688323 Rises=F Damp=F
 DIIS: error= 9.56D-05 at cycle   5 NSaved=   5.
 NSaved= 5 IEnMin= 5 EnMin= -232.425004460047     IErMin= 5 ErrMin= 9.56D-05
 ErrMax= 9.56D-05  0.00D+00 EMaxC= 1.00D-01 BMatC= 1.37D-06 BMatP= 1.40D-05
 IDIUse=1 WtCom= 1.00D+00 WtEn= 0.00D+00
 Coeff-Com: -0.521D-02 0.419D-01 0.580D-01 0.252D+00 0.654D+00
 Coeff:     -0.521D-02 0.419D-01 0.580D-01 0.252D+00 0.654D+00
 Gap=     0.267 Goal=   None    Shift=    0.000
 RMSDP=1.46D-05 MaxDP=3.31D-04 DE=-1.17D-05 OVMax= 6.98D-04

 Cycle   6  Pass 0  IDiag  1:
 RMSU=  7.82D-06    CP:  9.99D-01  1.04D+00  6.04D-01  6.76D-01  6.92D-01
 E= -232.425005771082     Delta-E=       -0.000001311036 Rises=F Damp=F
 DIIS: error= 1.78D-05 at cycle   6 NSaved=   6.
 NSaved= 6 IEnMin= 6 EnMin= -232.425005771082     IErMin= 6 ErrMin= 1.78D-05
 ErrMax= 1.78D-05  0.00D+00 EMaxC= 1.00D-01 BMatC= 7.99D-08 BMatP= 1.37D-06
 IDIUse=1 WtCom= 1.00D+00 WtEn= 0.00D+00
 Coeff-Com: -0.115D-02 0.514D-02 0.906D-02 0.854D-01 0.302D+00 0.599D+00
 Coeff:     -0.115D-02 0.514D-02 0.906D-02 0.854D-01 0.302D+00 0.599D+00
 Gap=     0.267 Goal=   None    Shift=    0.000
 RMSDP=3.62D-06 MaxDP=8.78D-05 DE=-1.31D-06 OVMax= 1.66D-04

 Initial convergence to 1.0D-05 achieved.  Increase integral accuracy.
 Cycle   7  Pass 1  IDiag  1:
 E= -232.425015680962     Delta-E=       -0.000009909880 Rises=F Damp=F
 DIIS: error= 7.04D-06 at cycle   1 NSaved=   1.
 NSaved= 1 IEnMin= 1 EnMin= -232.425015680962     IErMin= 1 ErrMin= 7.04D-06
 ErrMax= 7.04D-06  0.00D+00 EMaxC= 1.00D-01 BMatC= 1.13D-08 BMatP= 1.13D-08
 IDIUse=1 WtCom= 1.00D+00 WtEn= 0.00D+00
 Coeff-Com:  0.100D+01
 Coeff:      0.100D+01
 Gap=     0.267 Goal=   None    Shift=    0.000
 RMSDP=3.62D-06 MaxDP=8.78D-05 DE=-9.91D-06 OVMax= 9.05D-05

 Cycle   8  Pass 1  IDiag  1:
 RMSU=  2.77D-06    CP:  1.00D+00
 E= -232.425015669867     Delta-E=        0.000000011096 Rises=F Damp=F
 DIIS: error= 9.58D-06 at cycle   2 NSaved=   2.
 NSaved= 2 IEnMin= 1 EnMin= -232.425015680962     IErMin= 1 ErrMin= 7.04D-06
 ErrMax= 9.58D-06  0.00D+00 EMaxC= 1.00D-01 BMatC= 2.55D-08 BMatP= 1.13D-08
 IDIUse=1 WtCom= 1.00D+00 WtEn= 0.00D+00
 Coeff-Com:  0.604D+00 0.396D+00
 Coeff:      0.604D+00 0.396D+00
 Gap=     0.267 Goal=   None    Shift=    0.000
 RMSDP=1.43D-06 MaxDP=3.22D-05 DE= 1.11D-08 OVMax= 6.66D-05

 Cycle   9  Pass 1  IDiag  1:
 RMSU=  8.41D-07    CP:  1.00D+00  5.81D-01
 E= -232.425015691355     Delta-E=       -0.000000021488 Rises=F Damp=F
 DIIS: error= 1.42D-06 at cycle   3 NSaved=   3.
 NSaved= 3 IEnMin= 3 EnMin= -232.425015691355     IErMin= 3 ErrMin= 1.42D-06
 ErrMax= 1.42D-06  0.00D+00 EMaxC= 1.00D-01 BMatC= 2.82D-10 BMatP= 1.13D-08
 IDIUse=1 WtCom= 1.00D+00 WtEn= 0.00D+00
 Coeff-Com:  0.165D+00 0.145D+00 0.690D+00
 Coeff:      0.165D+00 0.145D+00 0.690D+00
 Gap=     0.267 Goal=   None    Shift=    0.000
 RMSDP=2.87D-07 MaxDP=6.31D-06 DE=-2.15D-08 OVMax= 1.17D-05

 Cycle  10  Pass 1  IDiag  1:
 RMSU=  2.72D-07    CP:  1.00D+00  5.98D-01  9.05D-01
 E= -232.425015691550     Delta-E=       -0.000000000195 Rises=F Damp=F
 DIIS: error= 7.32D-07 at cycle   4 NSaved=   4.
 NSaved= 4 IEnMin= 4 EnMin= -232.425015691550     IErMin= 4 ErrMin= 7.32D-07
 ErrMax= 7.32D-07  0.00D+00 EMaxC= 1.00D-01 BMatC= 1.06D-10 BMatP= 2.82D-10
 IDIUse=1 WtCom= 1.00D+00 WtEn= 0.00D+00
 Coeff-Com:  0.172D-01 0.327D-01 0.408D+00 0.543D+00
 Coeff:      0.172D-01 0.327D-01 0.408D+00 0.543D+00
 Gap=     0.267 Goal=   None    Shift=    0.000
 RMSDP=1.35D-07 MaxDP=2.56D-06 DE=-1.95D-10 OVMax= 5.41D-06

 Cycle  11  Pass 1  IDiag  1:
 RMSU=  6.51D-08    CP:  1.00D+00  6.04D-01  9.67D-01  6.13D-01
 E= -232.425015691647     Delta-E=       -0.000000000097 Rises=F Damp=F
 DIIS: error= 2.20D-07 at cycle   5 NSaved=   5.
 NSaved= 5 IEnMin= 5 EnMin= -232.425015691647     IErMin= 5 ErrMin= 2.20D-07
 ErrMax= 2.20D-07  0.00D+00 EMaxC= 1.00D-01 BMatC= 9.78D-12 BMatP= 1.06D-10
 IDIUse=1 WtCom= 1.00D+00 WtEn= 0.00D+00
 Coeff-Com: -0.798D-02 0.330D-02 0.159D+00 0.306D+00 0.539D+00
 Coeff:     -0.798D-02 0.330D-02 0.159D+00 0.306D+00 0.539D+00
 Gap=     0.267 Goal=   None    Shift=    0.000
 RMSDP=3.34D-08 MaxDP=7.57D-07 DE=-9.68D-11 OVMax= 1.31D-06

 Cycle  12  Pass 1  IDiag  1:
 RMSU=  2.33D-08    CP:  1.00D+00  6.06D-01  9.67D-01  6.47D-01  6.75D-01
 E= -232.425015691655     Delta-E=       -0.000000000008 Rises=F Damp=F
 DIIS: error= 4.00D-08 at cycle   6 NSaved=   6.
 NSaved= 6 IEnMin= 6 EnMin= -232.425015691655     IErMin= 6 ErrMin= 4.00D-08
 ErrMax= 4.00D-08  0.00D+00 EMaxC= 1.00D-01 BMatC= 4.24D-13 BMatP= 9.78D-12
 IDIUse=1 WtCom= 1.00D+00 WtEn= 0.00D+00
 Coeff-Com: -0.451D-02-0.816D-03 0.363D-01 0.916D-01 0.240D+00 0.637D+00
 Coeff:     -0.451D-02-0.816D-03 0.363D-01 0.916D-01 0.240D+00 0.637D+00
 Gap=     0.267 Goal=   None    Shift=    0.000
 RMSDP=8.86D-09 MaxDP=1.17D-07 DE=-8.07D-12 OVMax= 2.04D-07

 SCF Done:  E(RB3LYP) =  -232.425015692     A.U. after   12 cycles
            NFock= 12  Conv=0.89D-08     -V/T= 2.0096
 KE= 2.302168441495D+02 PE=-8.983621929207D+02 EE= 2.568853713774D+02
 Leave Link  502 at Mon Oct 14 01:56:27 2019, MaxMem=  1342177280 cpu:              31.9 elap:               1.4
 (Enter /apps/cent7/gaussian/g16-A.03/g16-haswell/g16/l701.exe)
 ... and contract with generalized density number  0.
 Compute integral first derivatives.
 Leave Link  701 at Mon Oct 14 01:56:28 2019, MaxMem=  1342177280 cpu:               2.2 elap:               0.1
 (Enter /apps/cent7/gaussian/g16-A.03/g16-haswell/g16/l702.exe)
 L702 exits ... SP integral derivatives will be done elsewhere.
 Leave Link  702 at Mon Oct 14 01:56:28 2019, MaxMem=  1342177280 cpu:               0.5 elap:               0.0
 (Enter /apps/cent7/gaussian/g16-A.03/g16-haswell/g16/l703.exe)
 Integral derivatives from FoFJK, PRISM(SPDF).
 Compute integral first derivatives, UseDBF=F ICtDFT=           0.
 Calling FoFJK, ICntrl=      2127 FMM=F ISym2X=0 I1Cent= 0 IOpClX= 0 NMat=1 NMatS=1 NMatT=0.
 FoFJK:  IHMeth= 1 ICntrl=    2127 DoSepK=F KAlg= 0 I1Cent=           0 FoldK=F
 IRaf=         0 NMat=       1 IRICut=       1 DoRegI=T DoRafI=F ISym2E= 0 IDoP0=0 IntGTp=1.
 FoFCou: FMM=F IPFlag=           0 FMFlag=      100000 FMFlg1=         800
         NFxFlg=           0 DoJE=F BraDBF=F KetDBF=F FulRan=T
         wScrn=  0.000000 ICntrl=      2127 IOpCl=  0 I1Cent=           0 NGrid=           0
         NMat0=    1 NMatS0=      1 NMatT0=    0 NMatD0=    1 NMtDS0=    0 NMtDT0=    0
 Symmetry not used in FoFCou.
 Leave Link  703 at Mon Oct 14 01:56:28 2019, MaxMem=  1342177280 cpu:               8.4 elap:               0.4
 (Enter /apps/cent7/gaussian/g16-A.03/g16-haswell/g16/l716.exe)
 Dipole        = 5.02585741D-02-2.31918347D-01 5.29398252D-01
 ***** Axes restored to original set *****
 -------------------------------------------------------------------
 Center     Atomic                   Forces (Hartrees/Bohr)
 Number     Number              X              Y              Z
 -------------------------------------------------------------------
      1        6          -0.000464509   -0.002109903    0.001559691
      2        6          -0.005701146    0.007009928    0.000799843
      3        6          -0.001622415   -0.001583157    0.001647686
      4        8           0.004206848    0.000041813   -0.009226142
      5        6          -0.002224627   -0.001160589    0.007328371
      6        1           0.002631019   -0.001958357   -0.001136754
      7        1          -0.000070858   -0.000190537    0.000583301
      8        1           0.000476522   -0.002084205   -0.000778668
      9        1           0.000532197    0.001781685    0.000624890
     10        1           0.001012458    0.000379265   -0.000268705
     11        1           0.000773740   -0.000789314   -0.000288407
     12        1          -0.000489799   -0.000150894   -0.000620000
     13        1           0.000940571    0.000814266   -0.000225107
 -------------------------------------------------------------------
 Cartesian Forces:  Max     0.009226142 RMS     0.002709459
 Leave Link  716 at Mon Oct 14 01:56:28 2019, MaxMem=  1342177280 cpu:               0.5 elap:               0.0
 (Enter /apps/cent7/gaussian/g16-A.03/g16-haswell/g16/l103.exe)

 GradGradGradGradGradGradGradGradGradGradGradGradGradGradGradGradGradGrad
 Berny optimization.
 Using GEDIIS/GDIIS optimizer.
 FormGI is forming the generalized inverse of G from B-inverse, IUseBI=4.
 Internal  Forces:  Max     0.006327504 RMS     0.001950510
 Search for a local minimum.
 Step number   2 out of a maximum of   56
 All quantities printed in internal units (Hartrees-Bohrs-Radians)
 RMS Force = .19505D-02 SwitMx=.10000D-02 MixMth= 1
 Mixed Optimization -- RFO/linear search
 Update second derivatives using D2CorX and points    1    2
 DE= -8.38D-03 DEPred=-7.96D-03 R= 1.05D+00
 TightC=F SS=  1.41D+00  RLast= 2.58D-01 DXNew= 5.0454D-01 7.7535D-01
 Trust test= 1.05D+00 RLast= 2.58D-01 DXMaxT set to 5.05D-01
 ITU=  1  0
 Use linear search instead of GDIIS.
     Eigenvalues ---    0.00235   0.01266   0.01281   0.01295   0.02679
     Eigenvalues ---    0.02683   0.06999   0.07157   0.10116   0.10582
     Eigenvalues ---    0.15316   0.16000   0.16000   0.16000   0.16000
     Eigenvalues ---    0.16000   0.16000   0.16735   0.22583   0.24997
     Eigenvalues ---    0.25206   0.28226   0.36922   0.37230   0.37230
     Eigenvalues ---    0.37230   0.37230   0.37230   0.37230   0.37695
     Eigenvalues ---    0.40272   0.42783   0.54771
 RFO step:  Lambda=-1.96459866D-03 EMin= 2.34828984D-03
 Quartic linear search produced a step of  0.13907.
 Iteration  1 RMS(Cart)=  0.10987139 RMS(Int)=  0.00655943
 Iteration  2 RMS(Cart)=  0.00705477 RMS(Int)=  0.00008477
 Iteration  3 RMS(Cart)=  0.00003043 RMS(Int)=  0.00008109
 Iteration  4 RMS(Cart)=  0.00000000 RMS(Int)=  0.00008109
 ITry= 1 IFail=0 DXMaxC= 3.62D-01 DCOld= 1.00D+10 DXMaxT= 5.05D-01 DXLimC= 3.00D+00 Rises=F
 Variable       Old X    -DE/DX   Delta X   Delta X   Delta X     New X
                                 (Linear)    (Quad)   (Total)
    R1        2.86872  -0.00370  -0.00577  -0.01165  -0.01742   2.85130
    R2        2.52089   0.00061  -0.00557   0.00395  -0.00162   2.51927
    R3        2.63161  -0.00313  -0.00983  -0.00375  -0.01359   2.61803
    R4        2.06169   0.00163   0.00552   0.00219   0.00771   2.06940
    R5        2.06678   0.00044   0.00623  -0.00174   0.00449   2.07126
    R6        2.07005   0.00139   0.00668   0.00089   0.00757   2.07763
    R7        2.04885   0.00068   0.00373   0.00021   0.00394   2.05280
    R8        2.05108  -0.00025   0.00404  -0.00275   0.00129   2.05237
    R9        2.71164  -0.00528   0.00130  -0.01512  -0.01382   2.69782
   R10        2.07379   0.00102   0.00720  -0.00047   0.00673   2.08052
   R11        2.06432   0.00042   0.00588  -0.00164   0.00425   2.06857
   R12        2.07121   0.00100   0.00684  -0.00037   0.00647   2.07768
    A1        2.16818   0.00326   0.01026   0.00931   0.01955   2.18774
    A2        2.02342  -0.00407  -0.00987  -0.01323  -0.02312   2.00029
    A3        2.09141   0.00081  -0.00042   0.00382   0.00338   2.09479
    A4        1.90850   0.00370  -0.00030   0.02827   0.02785   1.93635
    A5        1.92522  -0.00111   0.00203  -0.00995  -0.00792   1.91729
    A6        1.94019   0.00173   0.00411   0.00860   0.01259   1.95278
    A7        1.90352  -0.00097  -0.00099  -0.00378  -0.00477   1.89875
    A8        1.89773  -0.00251  -0.00179  -0.01446  -0.01649   1.88125
    A9        1.88809  -0.00096  -0.00314  -0.00944  -0.01259   1.87550
   A10        2.09960   0.00170   0.00072   0.01145   0.01216   2.11176
   A11        2.10806   0.00022   0.00190   0.00047   0.00236   2.11042
   A12        2.07538  -0.00192  -0.00264  -0.01197  -0.01463   2.06076
   A13        1.96778   0.00633   0.00795   0.02429   0.03224   2.00002
   A14        1.95590  -0.00086   0.00630  -0.01058  -0.00437   1.95153
   A15        1.84992   0.00157  -0.00844   0.01758   0.00917   1.85909
   A16        1.94173  -0.00103   0.00432  -0.01055  -0.00632   1.93541
   A17        1.90076   0.00003  -0.00137   0.00271   0.00138   1.90214
   A18        1.90508   0.00004  -0.00077  -0.00266  -0.00362   1.90146
   A19        1.90909   0.00032  -0.00022   0.00459   0.00439   1.91348
    D1        0.47414  -0.00091  -0.00688  -0.19701  -0.20378   0.27036
    D2        2.56744  -0.00046  -0.00703  -0.19002  -0.19703   2.37041
    D3       -1.62134  -0.00128  -0.00703  -0.20284  -0.20994  -1.83128
    D4       -2.64696  -0.00079  -0.00403  -0.19115  -0.19511  -2.84207
    D5       -0.55366  -0.00035  -0.00418  -0.18416  -0.18836  -0.74202
    D6        1.54074  -0.00116  -0.00418  -0.19698  -0.20126   1.33948
    D7       -0.01783  -0.00035  -0.00248  -0.01031  -0.01270  -0.03053
    D8       -3.14103  -0.00019   0.00008  -0.00656  -0.00640   3.13576
    D9        3.10252  -0.00053  -0.00543  -0.01656  -0.02208   3.08044
   D10       -0.02068  -0.00037  -0.00288  -0.01282  -0.01578  -0.03645
   D11       -1.51963   0.00146   0.00712   0.09902   0.10627  -1.41335
   D12        1.64150   0.00154   0.00983   0.10452   0.11421   1.75571
   D13        1.06853  -0.00054   0.00297  -0.00269   0.00046   1.06900
   D14        3.13983   0.00000  -0.00025   0.00567   0.00540  -3.13795
   D15       -1.06974   0.00077  -0.00313   0.01606   0.01276  -1.05698
         Item               Value     Threshold  Converged?
 Maximum Force            0.006328     0.000450     NO 
 RMS     Force            0.001951     0.000300     NO 
 Maximum Displacement     0.362287     0.001800     NO 
 RMS     Displacement     0.110377     0.001200     NO 
 Predicted change in Energy=-1.368844D-03
 Lowest energy point so far.  Saving SCF results.
 GradGradGradGradGradGradGradGradGradGradGradGradGradGradGradGradGradGrad

 Leave Link  103 at Mon Oct 14 01:56:28 2019, MaxMem=  1342177280 cpu:               0.5 elap:               0.0
 (Enter /apps/cent7/gaussian/g16-A.03/g16-haswell/g16/l202.exe)
                          Input orientation:                          
 ---------------------------------------------------------------------
 Center     Atomic      Atomic             Coordinates (Angstroms)
 Number     Number       Type             X           Y           Z
 ---------------------------------------------------------------------
      1          6           0        0.525607   -0.943991   -0.662716
      2          6           0        1.238212   -2.269441   -0.772171
      3          6           0        1.118673    0.240396   -0.511868
      4          8           0       -0.856888   -1.027939   -0.694257
      5          6           0       -1.415066   -1.149004   -2.002650
      6          1           0        2.279087   -2.182613   -0.443170
      7          1           0        0.732372   -3.016525   -0.149799
      8          1           0        1.242684   -2.648337   -1.804241
      9          1           0        2.198935    0.318495   -0.428409
     10          1           0        0.533658    1.153069   -0.446038
     11          1           0       -1.070616   -2.062558   -2.511468
     12          1           0       -2.500909   -1.200795   -1.874212
     13          1           0       -1.157362   -0.277227   -2.621040
 ---------------------------------------------------------------------
                    Distance matrix (angstroms):
                    1          2          3          4          5
     1  C    0.000000
     2  C    1.508841   0.000000
     3  C    1.333138   2.526129   0.000000
     4  O    1.385401   2.436563   2.354736   0.000000
     5  C    2.367206   3.131986   3.251569   1.427624   0.000000
     6  H    2.158026   1.095080   2.687425   3.351217   4.140904
     7  H    2.145048   1.096064   3.299676   2.603201   3.395906
     8  H    2.173033   1.099432   3.167079   2.875058   3.057940
     9  H    2.109218   2.781829   1.086293   3.349869   4.206280
    10  H    2.108240   3.509463   1.086069   2.598466   3.394128
    11  H    2.686448   2.898041   3.754329   2.101992   1.100964
    12  H    3.270087   4.041970   4.127274   2.031004   1.094639
    13  H    2.666832   3.622983   3.145930   2.089580   1.099460
                    6          7          8          9         10
     6  H    0.000000
     7  H    1.781517   0.000000
     8  H    1.773004   1.770074   0.000000
     9  H    2.502436   3.653874   3.407261   0.000000
    10  H    3.764745   4.184825   4.098551   1.862786   0.000000
    11  H    3.938626   3.120625   2.488908   4.549562   4.144870
    12  H    5.085293   4.089569   4.014320   5.146564   4.097433
    13  H    4.492527   4.145103   3.471246   4.053054   3.104179
                   11         12         13
    11  H    0.000000
    12  H    1.787307   0.000000
    13  H    1.790793   1.793279   0.000000
 Stoichiometry    C4H8O
 Framework group  C1[X(C4H8O)]
 Deg. of freedom    33
 Full point group                 C1      NOp   1
 RotChk:  IX=3 Diff= 1.24D-01
 Largest Abelian subgroup         C1      NOp   1
 Largest concise Abelian subgroup C1      NOp   1
                         Standard orientation:                         
 ---------------------------------------------------------------------
 Center     Atomic      Atomic             Coordinates (Angstroms)
 Number     Number       Type             X           Y           Z
 ---------------------------------------------------------------------
      1          6           0       -0.519194    0.126517   -0.116096
      2          6           0       -1.077984   -1.264911    0.052086
      3          6           0       -1.170771    1.257390    0.155622
      4          8           0        0.766906    0.173614   -0.628994
      5          6           0        1.798172   -0.056894    0.330937
      6          1           0       -2.167035   -1.238536    0.163775
      7          1           0       -0.827536   -1.874951   -0.823405
      8          1           0       -0.661861   -1.769622    0.935749
      9          1           0       -2.199295    1.240353    0.504736
     10          1           0       -0.695577    2.223430    0.012430
     11          1           0        1.717930   -1.056382    0.785585
     12          1           0        2.747606    0.013390   -0.209313
     13          1           0        1.769180    0.700797    1.127101
 ---------------------------------------------------------------------
 Rotational constants (GHZ):           7.5369428           4.2596644           3.1184749
 Leave Link  202 at Mon Oct 14 01:56:28 2019, MaxMem=  1342177280 cpu:               0.7 elap:               0.0
 (Enter /apps/cent7/gaussian/g16-A.03/g16-haswell/g16/l301.exe)
 Standard basis: 6-31G(d) (6D, 7F)
 Ernie: Thresh=  0.10000D-02 Tol=  0.10000D-05 Strict=F.
 There are    91 symmetry adapted cartesian basis functions of A   symmetry.
 There are    91 symmetry adapted basis functions of A   symmetry.
    91 basis functions,   172 primitive gaussians,    91 cartesian basis functions
    20 alpha electrons       20 beta electrons
       nuclear repulsion energy       179.1675322864 Hartrees.
 IExCor=  402 DFT=T Ex+Corr=B3LYP ExCW=0 ScaHFX=  0.200000
 ScaDFX=  0.800000  0.720000  1.000000  0.810000 ScalE2=  1.000000  1.000000
 IRadAn=      5 IRanWt=     -1 IRanGd=            0 ICorTp=0 IEmpDi=  4
 NAtoms=   13 NActive=   13 NUniq=   13 SFac= 1.00D+00 NAtFMM=   60 NAOKFM=F Big=F
 Integral buffers will be    131072 words long.
 Raffenetti 2 integral format.
 Two-electron integral symmetry is turned on.
 Leave Link  301 at Mon Oct 14 01:56:28 2019, MaxMem=  1342177280 cpu:               1.2 elap:               0.1
 (Enter /apps/cent7/gaussian/g16-A.03/g16-haswell/g16/l302.exe)
 NPDir=0 NMtPBC=     1 NCelOv=     1 NCel=       1 NClECP=     1 NCelD=      1
         NCelK=      1 NCelE2=     1 NClLst=     1 CellRange=     0.0.
 One-electron integrals computed using PRISM.
 One-electron integral symmetry used in STVInt
 NBasis=    91 RedAO= T EigKep=  3.86D-03  NBF=    91
 NBsUse=    91 1.00D-06 EigRej= -1.00D+00 NBFU=    91
 Precomputing XC quadrature grid using
 IXCGrd= 4 IRadAn=           5 IRanWt=          -1 IRanGd=           0 AccXCQ= 0.00D+00.
 Generated NRdTot=       0 NPtTot=           0 NUsed=           0 NTot=          32
 NSgBfM=    91    91    91    91    91 MxSgAt=    13 MxSgA2=    13.
 Leave Link  302 at Mon Oct 14 01:56:28 2019, MaxMem=  1342177280 cpu:               2.7 elap:               0.1
 (Enter /apps/cent7/gaussian/g16-A.03/g16-haswell/g16/l303.exe)
 DipDrv:  MaxL=1.
 Leave Link  303 at Mon Oct 14 01:56:28 2019, MaxMem=  1342177280 cpu:               0.5 elap:               0.0
 (Enter /apps/cent7/gaussian/g16-A.03/g16-haswell/g16/l401.exe)
 Initial guess from the checkpoint file:  "mop.chk"
 B after Tr=     0.000000    0.000000    0.000000
         Rot=    0.999114   -0.020907   -0.003881   -0.036316 Ang=  -4.82 deg.
 Guess basis will be translated and rotated to current coordinates.
 JPrj=2 DoOrth=T DoCkMO=T.
 Generating alternative initial guess.
 ExpMin= 1.61D-01 ExpMax= 5.48D+03 ExpMxC= 8.25D+02 IAcc=2 IRadAn=         4 AccDes= 0.00D+00
 Harris functional with IExCor=  402 and IRadAn=       4 diagonalized for initial guess.
 HarFok:  IExCor=  402 AccDes= 0.00D+00 IRadAn=         4 IDoV= 1 UseB2=F ITyADJ=14
 ICtDFT=  3500011 ScaDFX=  1.000000  1.000000  1.000000  1.000000
 FoFCou: FMM=F IPFlag=           0 FMFlag=      100000 FMFlg1=           0
         NFxFlg=           0 DoJE=T BraDBF=F KetDBF=T FulRan=T
         wScrn=  0.000000 ICntrl=       500 IOpCl=  0 I1Cent=   200000004 NGrid=           0
         NMat0=    1 NMatS0=      1 NMatT0=    0 NMatD0=    1 NMtDS0=    0 NMtDT0=    0
 Petite list used in FoFCou.
 Harris En= -232.470836223771    
 Leave Link  401 at Mon Oct 14 01:56:29 2019, MaxMem=  1342177280 cpu:               5.4 elap:               0.3
 (Enter /apps/cent7/gaussian/g16-A.03/g16-haswell/g16/l502.exe)
 Integral symmetry usage will be decided dynamically.
 Closed shell SCF:
 Using DIIS extrapolation, IDIIS=  1040.
 NGot=  1342177280 LenX=  1342157286 LenY=  1342148564
 Requested convergence on RMS density matrix=1.00D-08 within 128 cycles.
 Requested convergence on MAX density matrix=1.00D-06.
 Requested convergence on             energy=1.00D-06.
 No special actions if energy rises.
 Fock matrices will be formed incrementally for  20 cycles.
 Integral accuracy reduced to 1.0D-05 until final iterations.

 Cycle   1  Pass 0  IDiag  1:
 FoFJK:  IHMeth= 1 ICntrl=       0 DoSepK=F KAlg= 0 I1Cent=           0 FoldK=F
 IRaf= 990000000 NMat=       1 IRICut=       1 DoRegI=T DoRafI=F ISym2E= 0 IDoP0=0 IntGTp=1.
 FoFCou: FMM=F IPFlag=           0 FMFlag=      100000 FMFlg1=           0
         NFxFlg=           0 DoJE=F BraDBF=F KetDBF=F FulRan=T
         wScrn=  0.000000 ICntrl=         0 IOpCl=  0 I1Cent=           0 NGrid=           0
         NMat0=    1 NMatS0=      1 NMatT0=    0 NMatD0=    1 NMtDS0=    0 NMtDT0=    0
 Symmetry not used in FoFCou.
 E= -232.416268397628    
 DIIS: error= 5.60D-03 at cycle   1 NSaved=   1.
 NSaved= 1 IEnMin= 1 EnMin= -232.416268397628     IErMin= 1 ErrMin= 5.60D-03
 ErrMax= 5.60D-03  0.00D+00 EMaxC= 1.00D-01 BMatC= 4.77D-03 BMatP= 4.77D-03
 IDIUse=3 WtCom= 9.44D-01 WtEn= 5.60D-02
 Coeff-Com:  0.100D+01
 Coeff-En:   0.100D+01
 Coeff:      0.100D+01
 Gap=     1.609 Goal=   None    Shift=    0.000
[...]
 ! R4    R(2,6)                  1.0925         -DE/DX =    0.0                 !
 ! R5    R(2,7)                  1.0977         -DE/DX =    0.0                 !
 ! R6    R(2,8)                  1.0972         -DE/DX =    0.0                 !
 ! R7    R(3,9)                  1.0838         -DE/DX =    0.0                 !
 ! R8    R(3,10)                 1.0846         -DE/DX =    0.0                 !
 ! R9    R(4,5)                  1.4203         -DE/DX =    0.0                 !
 ! R10   R(5,11)                 1.0976         -DE/DX =    0.0                 !
 ! R11   R(5,12)                 1.0923         -DE/DX =    0.0                 !
 ! R12   R(5,13)                 1.099          -DE/DX =    0.0                 !
 ! A1    A(2,1,3)              124.0311         -DE/DX =    0.0                 !
 ! A2    A(2,1,4)              117.7992         -DE/DX =    0.0                 !
 ! A3    A(3,1,4)              118.0555         -DE/DX =    0.0                 !
 ! A4    A(1,2,6)              110.0432         -DE/DX =    0.0                 !
 ! A5    A(1,2,7)              111.0103         -DE/DX =    0.0                 !
 ! A6    A(1,2,8)              112.3428         -DE/DX =    0.0                 !
 ! A7    A(6,2,7)              108.3311         -DE/DX =    0.0                 !
 ! A8    A(6,2,8)              107.7149         -DE/DX =    0.0                 !
 ! A9    A(7,2,8)              107.2409         -DE/DX =    0.0                 !
 ! A10   A(1,3,9)              120.8394         -DE/DX =    0.0                 !
 ! A11   A(1,3,10)             120.8148         -DE/DX =    0.0                 !
 ! A12   A(9,3,10)             118.3224         -DE/DX =    0.0                 !
 ! A13   A(1,4,5)              118.0675         -DE/DX =    0.0                 !
 ! A14   A(4,5,11)             112.4833         -DE/DX =    0.0                 !
 ! A15   A(4,5,12)             105.9139         -DE/DX =    0.0                 !
 ! A16   A(4,5,13)             111.7117         -DE/DX =    0.0                 !
 ! A17   A(11,5,12)            108.6849         -DE/DX =    0.0                 !
 ! A18   A(11,5,13)            109.021          -DE/DX =    0.0                 !
 ! A19   A(12,5,13)            108.8942         -DE/DX =    0.0                 !
 ! D1    D(3,1,2,6)              2.7701         -DE/DX =    0.0                 !
 ! D2    D(3,1,2,7)            122.6872         -DE/DX =    0.0                 !
 ! D3    D(3,1,2,8)           -117.2385         -DE/DX =    0.0                 !
 ! D4    D(4,1,2,6)           -173.2623         -DE/DX =    0.0                 !
 ! D5    D(4,1,2,7)            -53.3452         -DE/DX =    0.0                 !
 ! D6    D(4,1,2,8)             66.7291         -DE/DX =    0.0                 !
 ! D7    D(2,1,3,9)             -1.618          -DE/DX =    0.0                 !
 ! D8    D(2,1,3,10)          -179.8308         -DE/DX =    0.0                 !
 ! D9    D(4,1,3,9)            174.405          -DE/DX =    0.0                 !
 ! D10   D(4,1,3,10)            -3.8078         -DE/DX =    0.0                 !
 ! D11   D(2,1,4,5)            -37.3224         -DE/DX =    0.0                 !
 ! D12   D(3,1,4,5)            146.4031         -DE/DX =    0.0                 !
 ! D13   D(1,4,5,11)            63.8129         -DE/DX =    0.0                 !
 ! D14   D(1,4,5,12)          -177.5972         -DE/DX =    0.0                 !
 ! D15   D(1,4,5,13)           -59.1747         -DE/DX =    0.0                 !
 --------------------------------------------------------------------------------
 GradGradGradGradGradGradGradGradGradGradGradGradGradGradGradGradGradGrad

 Leave Link  103 at Mon Oct 14 01:57:05 2019, MaxMem=  1342177280 cpu:               0.4 elap:               0.0
 (Enter /apps/cent7/gaussian/g16-A.03/g16-haswell/g16/l9999.exe)

 ----------------------------------------------------------------------

 Electric dipole moment (input orientation):
 (Debye = 10**-18 statcoulomb cm , SI units = C m)
                  (au)            (Debye)         (10**-30 SI)
   Tot        0.717946D+00      0.182484D+01      0.608700D+01
   x          0.250338D-01      0.636294D-01      0.212245D+00
   y         -0.553264D+00     -0.140626D+01     -0.469077D+01
   z         -0.456857D+00     -0.116122D+01     -0.387340D+01

 Dipole polarizability, Alpha (input orientation).
 (esu units = cm**3 , SI units = C**2 m**2 J**-1)
 Alpha(0;0):
               (au)            (10**-24 esu)      (10**-40 SI)
   iso        0.464327D+02      0.688061D+01      0.765571D+01
   aniso      0.281893D+02      0.417722D+01      0.464779D+01
   xx         0.510833D+02      0.756976D+01      0.842250D+01
   yx         0.599389D+01      0.888204D+00      0.988260D+00
   yy         0.515141D+02      0.763361D+01      0.849353D+01
   zx         0.916466D+01      0.135806D+01      0.151105D+01
   zy         0.859533D+01      0.127370D+01      0.141718D+01
   zz         0.367006D+02      0.543846D+01      0.605111D+01

 ----------------------------------------------------------------------

 Dipole orientation:
     6          0.94821818         -0.14911519          2.02129202
     6          2.06411973          1.08018255          4.33280511
     6          2.27719614         -0.75049458         -0.04100730
     8         -1.62536384         -0.54002097          1.97666433
     6         -2.83452832         -1.25145885          4.26487069
     1          4.06639112          1.47893217          4.02533774
     1          1.10166646          2.86672806          4.76303889
     1          1.91125378         -0.12101896          6.01584193
     1          4.27620668         -0.32208629         -0.16375054
     1          1.37038189         -1.63021798         -1.65485811
     1         -2.70587881          0.22026829          5.72087446
     1         -4.82237061         -1.53884758          3.78894978
     1         -2.06162934         -3.02356429          5.02353491

 Electric dipole moment (dipole orientation):
 (Debye = 10**-18 statcoulomb cm , SI units = C m)
                  (au)            (Debye)         (10**-30 SI)
   Tot        0.717946D+00      0.182484D+01      0.608700D+01
   x          0.000000D+00      0.000000D+00      0.000000D+00
   y          0.000000D+00      0.000000D+00      0.000000D+00
   z          0.717946D+00      0.182484D+01      0.608700D+01

 Dipole polarizability, Alpha (dipole orientation).
 (esu units = cm**3 , SI units = C**2 m**2 J**-1)
 Alpha(0;0):
               (au)            (10**-24 esu)      (10**-40 SI)
   iso        0.464327D+02      0.688061D+01      0.765571D+01
   aniso      0.281893D+02      0.417722D+01      0.464779D+01
   xx         0.519111D+02      0.769243D+01      0.855899D+01
   yx         0.276145D+01      0.409205D+00      0.455302D+00
   yy         0.341706D+02      0.506356D+01      0.563397D+01
   zx        -0.104356D+02     -0.154640D+01     -0.172060D+01
   zy         0.592935D+01      0.878639D+00      0.977617D+00
   zz         0.532163D+02      0.788584D+01      0.877418D+01

 ----------------------------------------------------------------------
 1\1\GINC-BROWN-A207\Freq\RB3LYP\6-31G(d)\C4H8O1\FINEJ\14-Oct-2019\0\\#
 P Geom=AllCheck Guess=TCheck SCRF=Check GenChk RB3LYP/6-31G(d) Freq\\M
 OP\\0,1\C,0.5399945788,-0.7657618069,-0.723954672\C,1.1620345734,-2.11
 31208639,-0.9804334842\C,1.2099098316,0.2895244997,-0.2502211847\O,-0.
 8183011012,-0.6381405369,-0.9158231615\C,-1.409284604,-1.3419200032,-1
 .9987772194\H,2.2116654166,-2.1047684398,-0.677344745\H,0.6455187105,-
 2.8992286234,-0.4145234922\H,1.1226943557,-2.3958226127,-2.0398376345\
 H,2.2609671385,0.2125202121,0.0026987126\H,0.7082672139,1.236345485,-0
 .0822579567\H,-1.3271799166,-2.4307156875,-1.886529925\H,-2.4667080732
 ,-1.0682283193,-1.992392014\H,-0.9711903639,-1.0471541532,-2.962641363
 4\\Version=ES64L-G16RevA.03\State=1-A\HF=-232.4287977\RMSD=3.800e-09\R
 MSF=6.922e-06\ZeroPoint=0.1134333\Thermal=0.1134333\Dipole=0.0250338,-
 0.5532638,-0.4568572\DipoleDeriv=1.229597,0.3440946,0.4556557,-0.01760
 07,0.5269183,0.0670435,0.1500782,0.1097975,0.1096276,-0.0489447,0.0060
 994,-0.0548828,0.0946426,-0.0325164,-0.0328649,0.0255335,-0.0122535,0.
 1280716,-0.1956637,-0.1587134,-0.0326992,-0.2292549,-0.2815825,-0.0145
 379,-0.0061923,-0.0056905,-0.4080227,-1.3306372,-0.4149395,-0.556863,-
 0.0696415,-0.5465104,-0.1377159,-0.2935914,-0.1557527,-0.5559553,0.508
 0899,0.1370736,0.2015133,0.2595822,0.5173943,0.2031185,0.3296197,0.151
 2614,0.6665648,-0.1002555,0.0261168,-0.0471491,-0.0228463,0.0607355,-0
 .0121027,-0.058965,0.0063279,0.0666359,0.0223179,-0.0577189,0.0718133,
 -0.0593718,-0.1006585,0.0338814,0.0544399,0.0601383,0.0268547,0.081083
 9,0.0099211,-0.0215133,0.0030242,-0.0154912,-0.0429591,-0.012879,-0.06
 85829,-0.1229164,-0.0758052,0.0160886,-0.0519627,0.0526056,0.0492529,-
 0.0144517,-0.059402,-0.0245233,0.107068,0.0238285,0.0762851,-0.0128012
 ,0.0568723,-0.0347618,-0.044821,-0.0142902,-0.0502518,0.1501844,0.0409
 357,0.0325332,-0.0072349,-0.0509209,-0.1916483,-0.0223279,-0.0624213,0
 .0207991,-0.0229044,-0.1488611,0.01932,-0.0386479,0.0508236,0.0491213,
 -0.0108014,-0.0139611,-0.025196,0.0448594,-0.0056856,-0.0361605,0.0947
 719,-0.0679143,-0.000253,0.0285389,-0.0379691,-0.0060735,-0.1900677\Po
 lar=51.0832953,5.9938944,51.5141299,9.1646622,8.5953279,36.7005791\Qua
 drupole=0.9204539,-0.2225129,-0.697941,0.3183473,1.6303858,0.3536775\P
 G=C01 [X(C4H8O1)]\NImag=0\\0.59794602,0.11113654,0.71697545,0.12800788
 ,0.20673773,0.28019935,-0.10348593,0.03964530,0.00637156,0.58535154,0.
 04132062,-0.18998981,-0.02632509,0.03262623,0.50238061,0.00381153,-0.0
 2385454,-0.08638010,0.01700205,-0.00184689,0.54655412,-0.19912761,-0.1
 6049332,-0.08440847,0.01250507,0.00958181,0.00495203,0.69448400,-0.161
 79772,-0.38737755,-0.14153363,-0.01102462,-0.02613709,-0.01151004,0.03
 564196,0.73703646,-0.08684775,-0.14229332,-0.11675199,-0.00238305,-0.0
 0753063,0.00604747,0.16087226,0.20409373,0.18908058,-0.26455777,0.0360
 2840,-0.01089106,-0.03119569,0.00429361,-0.00507244,-0.05499991,-0.012
 17291,-0.01449756,0.45975153,0.01396274,-0.08984723,-0.02535037,0.0337
 3371,0.00103665,0.00377846,-0.03966781,0.00998314,-0.00677763,0.022100
 45,0.20129679,-0.03934455,-0.02195698,-0.06902410,0.00108521,0.0010324
 6,0.00613590,-0.02579256,0.00023223,0.00552993,0.12877334,0.13678526,0
 .25718111,-0.03523967,-0.02356485,-0.03432518,-0.00147730,0.00082806,0
 .00020198,-0.00050904,0.00492690,0.00019855,-0.10046710,-0.01114229,-0
 .02891599,0.59856461,-0.01243330,-0.00124802,0.00339796,0.00300149,0.0
 0238877,0.00258034,0.00499942,0.00219665,0.00022675,-0.02590758,-0.111
 11309,-0.07044913,-0.03705255,0.55376988,-0.01726585,0.00172299,-0.011
 68262,0.00343699,0.00131711,0.00163497,0.00588084,0.00077950,0.0017125
 6,-0.05339857,-0.06778876,-0.15761999,-0.04136587,-0.04094492,0.505393
 00,-0.01408622,-0.00296829,-0.00369263,-0.30056936,-0.00268767,-0.0734
 3132,0.00061304,-0.00149617,0.00001539,-0.00023204,0.00315002,-0.00064
 124,0.00062647,0.00036541,0.00111322,0.32445177,0.03001308,0.00395719,
 0.01031948,-0.00686568,-0.04928145,-0.00102582,-0.00039185,-0.00013370
 ,-0.00016210,0.00501923,-0.00595959,-0.00087835,-0.00163704,-0.0016369
 6,-0.00161989,0.00384873,0.05255069,0.00635778,0.00073767,-0.00012182,
 -0.07472160,-0.00002308,-0.06960808,0.00033459,-0.00021048,-0.00050823
 ,0.00145095,-0.00217099,0.00167372,-0.00062548,-0.00061993,-0.00056384
 ,0.08090112,0.00322897,0.07100539,0.00845777,0.00974605,-0.00991220,-0
 .10917108,-0.08556054,0.06375955,-0.00067907,0.00110813,0.00059798,0.0
 0099037,-0.00153287,0.00075899,-0.00016233,0.00022294,-0.00077806,-0.0
 1287367,-0.02186559,0.01758575,0.11322305,-0.01786430,-0.02634287,0.01
 432541,-0.08687465,-0.17675232,0.09718639,0.00384251,-0.00203950,0.000
 04997,0.00037175,0.00285248,-0.00154316,0.00009141,-0.00028388,0.00024
 355,0.00025118,0.00040146,-0.00109469,0.09575430,0.19528356,-0.0041698
 3,-0.00584689,0.00515400,0.06388757,0.09593537,-0.11788365,0.00020764,
 -0.00097136,-0.00010534,-0.00077224,0.00046363,-0.00054250,0.00054949,
 0.00132164,-0.00012791,-0.00422515,-0.00850298,0.00541755,-0.07128946,
 -0.10460233,0.12548377,0.00200340,0.00175969,0.01471654,-0.04929842,-0
 .00067097,-0.00981081,-0.00099287,0.00051794,-0.00050556,-0.00000632,-
 0.00021131,-0.00145312,-0.00088674,0.00046447,0.00069567,0.00053717,-0
 .00774958,-0.03137205,0.00027269,0.00415243,0.01623282,0.04928777,-0.0
 0502678,-0.01083152,-0.03316296,-0.00117043,-0.06234330,-0.06295663,0.
 00345142,-0.00185663,0.00061879,-0.00027734,0.00084242,0.00143322,0.00
 057746,0.00075139,-0.00071649,-0.00035880,-0.00085771,-0.00012730,0.00
 176520,0.00665919,0.02352681,0.00133451,0.06893480,-0.00083509,-0.0043
 8217,-0.00189897,-0.01047729,-0.06029063,-0.29070769,0.00149593,0.0002
 8441,0.00050582,0.00104940,-0.00023966,0.00035866,-0.00162002,-0.00107
 326,-0.00064735,-0.00020889,-0.00120129,-0.00775042,-0.00133849,-0.003
 72351,-0.01715240,0.01233716,0.06925336,0.31707182,-0.01212341,0.00573
 584,-0.00048776,-0.00069962,0.00075315,0.00159348,-0.32991012,0.021880
 31,-0.07261432,0.00141339,-0.00217171,-0.00444713,-0.00053902,0.000125
 70,0.00068298,0.00103965,-0.00016429,0.00005871,0.00024170,-0.00026522
 ,-0.00009210,0.00032296,0.00024231,0.00013495,0.34837602,-0.02394555,0
 .00498884,-0.00355987,-0.00112124,-0.00018988,0.00153866,0.02857466,-0
 .05664649,-0.00213595,-0.00098964,-0.00261220,-0.00497665,-0.00136836,
 0.00056412,0.00002089,0.00008600,-0.00075342,-0.00038394,0.00000897,-0
 .00019592,-0.00023154,0.00007418,0.00036428,0.00016099,-0.02440951,0.0
 5249875,-0.00886392,0.00480265,-0.00320400,0.00165308,0.00193649,-0.00
 536753,-0.07213008,-0.00499867,-0.04465546,-0.00564017,-0.00410666,0.0
 0677319,0.00116783,-0.00011804,0.00290742,0.00003322,-0.00064409,0.000
 43417,0.00020553,0.00110805,0.00052371,-0.00025369,-0.00109375,-0.0000
 8678,0.07825383,0.00309403,0.04151160,0.00995124,-0.01502519,-0.003597
 78,-0.00096362,-0.00061230,-0.00325130,-0.11971023,0.12282359,0.015136
 11,0.00060820,-0.00014380,0.00188201,0.00034150,-0.00000007,0.00005102
 ,0.00031928,-0.00021912,0.00007385,0.00018135,0.00014213,0.00022070,0.
 00033414,-0.00084958,-0.00008766,-0.00781466,0.02333435,0.00538462,0.1
 1666214,0.01530661,-0.01871031,-0.00372628,-0.00233741,-0.00039927,-0.
 00430184,0.11714404,-0.27482811,-0.04594246,0.00074473,0.00149242,0.00
 263131,-0.00010729,0.00005238,0.00013115,-0.00021720,0.00048389,0.0001
 3889,-0.00000227,-0.00012553,-0.00007266,0.00020323,-0.00145585,-0.000
 13849,-0.00137874,0.00230911,0.00019064,-0.12955731,0.29094583,0.00738
 135,-0.01095677,0.00352842,-0.00444067,-0.00392568,0.00955946,0.013316
 99,-0.04563875,-0.04021978,0.00246859,0.00297912,-0.00523887,-0.000725
 53,0.00003336,-0.00111941,0.00017347,0.00028927,-0.00007278,0.00070543
 ,-0.00244543,-0.00088763,-0.00015372,0.00190773,0.00008875,-0.00261779
 ,0.00684637,0.00163168,-0.01602649,0.05085019,0.03268335,0.00347492,-0
 .00237347,0.00086455,-0.00091579,0.00020495,0.00030924,-0.00058202,0.0
 0022865,-0.00013145,-0.00009854,-0.01891396,-0.00381296,-0.05646224,0.
 02769076,-0.00250165,0.00025616,-0.00010751,-0.00010955,-0.00047601,0.
 00039951,-0.00042690,-0.00148143,0.00022552,-0.00014399,-0.00013954,0.
 00004528,-0.00020095,0.00001209,0.00011677,0.00014241,0.05443708,0.006
 33243,-0.00097832,0.00081451,0.00045788,-0.00016116,0.00012529,-0.0014
 2527,0.00003015,-0.00033648,-0.00905773,-0.01716554,-0.01368914,0.0239
 4809,-0.29560994,0.03846780,-0.00000485,0.00079313,0.00049387,0.000337
 18,0.00025203,-0.00048614,-0.00004254,0.00004739,0.00094585,-0.0001515
 4,-0.00004732,-0.00032396,0.00003699,0.00018629,0.00025089,-0.02438823
 ,0.32710084,0.00466024,-0.00130319,0.00188026,-0.00114162,0.00025430,0
 .00076772,-0.00097671,-0.00009760,-0.00035057,-0.00398472,-0.03593182,
 -0.00403327,-0.00371486,0.04134955,-0.05917440,0.00010667,0.00000206,-
 0.00036267,-0.00041074,0.00050909,-0.00016483,0.00008433,0.00032262,-0
 .00033878,-0.00015717,0.00008489,-0.00037353,0.00005667,0.00012148,0.0
 0023431,0.00768107,-0.03192339,0.06233719,0.00275320,-0.00139006,-0.00
 146321,0.00002579,-0.00027444,0.00010094,-0.00092416,0.00023519,-0.000
 26033,-0.01802675,-0.00152939,-0.00776310,-0.30155689,0.07027118,0.009
 02332,-0.00004204,0.00004408,-0.00002887,0.00001024,0.00003748,-0.0000
 3362,0.00009764,-0.00006279,-0.00005934,-0.00013219,-0.00024179,0.0000
 5895,0.00003850,-0.00000753,-0.00005636,-0.00045796,0.00139659,0.00119
 896,0.32906990,-0.00049765,-0.00175639,-0.00253283,0.00050235,-0.00024
 796,-0.00022260,-0.00083203,0.00047462,-0.00010304,-0.02408691,0.00341
 306,-0.00510670,0.07729311,-0.07211063,0.00116508,0.00001456,0.0003152
 5,0.00026291,-0.00007812,0.00012203,-0.00035876,-0.00008944,-0.0000295
 7,0.00057952,-0.00019234,-0.00023756,0.00003450,0.00003952,0.00001817,
 -0.00006534,0.03158664,-0.00653733,-0.00158483,-0.07285445,0.07300619,
 -0.00051751,-0.00278933,-0.00302593,0.00022140,-0.00043715,-0.00032785
 ,-0.00155254,0.00035632,-0.00014223,-0.03621176,0.00267571,-0.00709105
 ,0.01854869,-0.00130730,-0.05021647,-0.00004819,0.00007328,0.00020588,
 0.00003892,0.00004477,0.00010833,-0.00013092,0.00034098,0.00032141,-0.
 00022493,-0.00039071,0.00002847,0.00009205,0.,-0.00009125,-0.00522697,
 0.00267762,0.00114631,-0.00199143,0.00721854,0.05725670,0.00403406,0.0
 0176336,-0.00118223,-0.00010560,0.00019749,-0.00016494,-0.00016707,-0.
 00087125,0.00041972,0.00682064,0.00236622,-0.02032891,-0.10223226,-0.0
 3174786,0.09442596,-0.00004021,0.00007555,0.00009479,-0.00001501,-0.00
 003852,-0.00008889,-0.00018998,0.00014930,-0.00024667,-0.00003518,-0.0
 0004736,0.00033177,0.00004007,0.00009236,-0.00016770,0.00243328,0.0025
 6098,-0.00340212,-0.01085527,-0.01080524,0.02700320,0.10031253,0.00349
 327,0.00116054,0.00059592,-0.00057294,-0.00030379,0.00050921,-0.000425
 53,-0.00070196,0.00029236,0.00393394,0.00578069,-0.02351437,-0.0327926
 6,-0.07772067,0.06722198,0.00001709,0.00012121,-0.00023191,0.00009661,
 0.00016926,-0.00017478,0.00025738,-0.00022490,-0.00017512,-0.00000396,
 -0.00004231,0.00011882,0.00003079,0.00003099,-0.00012496,-0.01471491,-
 0.00791023,0.02819685,0.00437594,0.00357014,-0.00846271,0.03630496,0.0
 7607104,0.00762573,-0.00061786,0.00132750,-0.00049362,-0.00009659,-0.0
 0042474,-0.00219993,-0.00078566,-0.00014276,-0.00327376,-0.00431629,-0
 .03410274,0.09062641,0.06560299,-0.23049596,-0.00009567,0.00012146,0.0
 0025112,0.00007680,-0.00005809,0.00017690,-0.00038665,0.00065362,0.000
 23594,-0.00008277,-0.00006717,-0.00012294,0.00006621,0.00011807,-0.000
 09625,0.00355714,0.00298327,-0.00156774,0.00127409,0.00071353,0.001827
 69,-0.09669399,-0.06425128,0.26313398\\-0.00001839,-0.00001334,-0.0000
 0752,0.00000502,0.00000806,0.00000686,0.00000023,-0.00000344,-0.000000
 66,0.00000776,0.00001278,0.00001017,-0.00000510,-0.00001218,-0.0000080
 8,-0.00000441,-0.00000037,-0.00000803,-0.00000011,0.00000138,-0.000005
 27,0.00000439,-0.00000419,0.00000539,0.00000046,0.00000505,0.00000397,
 0.00000298,-0.00000152,-0.00000377,-0.00000483,0.00001212,-0.00000213,
 0.00000835,-0.00000557,0.00000366,0.00000364,0.00000119,0.00000540\\\@


 SIC AS THE CAWSE OF EWERY THING IS, SIC WILBE THE EFFECT.
 -- PROVERBS AND REASONS OF THE YEAR 1585
           AS REPRINTED IN PAISLEY MAGAZINE 1828.
 Job cpu time:       0 days  0 hours  3 minutes  0.2 seconds.
 Elapsed time:       0 days  0 hours  0 minutes  8.0 seconds.
 File lengths (MBytes):  RWF=     17 Int=      0 D2E=      0 Chk=      2 Scr=      1
 Normal termination of Gaussian 16 at Mon Oct 14 01:57:05 2019.
real 43.27
user 874.39
sys 12.75
Machine:
brown-a207
brown-a207
brown-a207
brown-a207
brown-a207
brown-a207
brown-a207
brown-a207
brown-a207
brown-a207
brown-a207
brown-a207
brown-a207
brown-a207
brown-a207
brown-a207
brown-a207
brown-a207
brown-a207
brown-a207
brown-a207
brown-a207
brown-a207
brown-a207
