 Entering Gaussian System, Link 0=/apps/cent7/gaussian/g16-A.03/g16-haswell/g16/g16
 Initial command:
 /apps/cent7/gaussian/g16-A.03/g16-haswell/g16/l1.exe "/scratch/brown/finej/gaussian/Gau-230703.inp" -scrdir="/scratch/brown/finej/gaussian/"
 Entering Link 1 = /apps/cent7/gaussian/g16-A.03/g16-haswell/g16/l1.exe PID=    230704.
  
 Copyright (c) 1988,1990,1992,1993,1995,1998,2003,2009,2016,
            Gaussian, Inc.  All Rights Reserved.
  
 This is part of the Gaussian(R) 16 program.  It is based on
 the Gaussian(R) 09 system (copyright 2009, Gaussian, Inc.),
 the Gaussian(R) 03 system (copyright 2003, Gaussian, Inc.),
 the Gaussian(R) 98 system (copyright 1998, Gaussian, Inc.),
 the Gaussian(R) 94 system (copyright 1995, Gaussian, Inc.),
 the Gaussian 92(TM) system (copyright 1992, Gaussian, Inc.),
 the Gaussian 90(TM) system (copyright 1990, Gaussian, Inc.),
 the Gaussian 88(TM) system (copyright 1988, Gaussian, Inc.),
 the Gaussian 86(TM) system (copyright 1986, Carnegie Mellon
 University), and the Gaussian 82(TM) system (copyright 1983,
 Carnegie Mellon University). Gaussian is a federally registered
 trademark of Gaussian, Inc.
  
 This software contains proprietary and confidential information,
 including trade secrets, belonging to Gaussian, Inc.
  
 This software is provided under written license and may be
 used, copied, transmitted, or stored only in accord with that
 written license.
  
 The following legend is applicable only to US Government
 contracts under FAR:
  
                    RESTRICTED RIGHTS LEGEND
  
 Use, reproduction and disclosure by the US Government is
 subject to restrictions as set forth in subparagraphs (a)
 and (c) of the Commercial Computer Software - Restricted
 Rights clause in FAR 52.227-19.
  
 Gaussian, Inc.
 340 Quinnipiac St., Bldg. 40, Wallingford CT 06492
  
  
 ---------------------------------------------------------------
 Warning -- This program may not be used in any manner that
 competes with the business of Gaussian, Inc. or will provide
 assistance to any competitor of Gaussian, Inc.  The licensee
 of this program is prohibited from giving any competitor of
 Gaussian, Inc. access to this program.  By using this program,
 the user acknowledges that Gaussian, Inc. is engaged in the
 business of creating and licensing software in the field of
 computational chemistry and represents and warrants to the
 licensee that it is not a competitor of Gaussian, Inc. and that
 it will not use this program in any manner prohibited above.
 ---------------------------------------------------------------
  

 Cite this work as:
 Gaussian 16, Revision A.03,
 M. J. Frisch, G. W. Trucks, H. B. Schlegel, G. E. Scuseria, 
 M. A. Robb, J. R. Cheeseman, G. Scalmani, V. Barone, 
 G. A. Petersson, H. Nakatsuji, X. Li, M. Caricato, A. V. Marenich, 
 J. Bloino, B. G. Janesko, R. Gomperts, B. Mennucci, H. P. Hratchian, 
 J. V. Ortiz, A. F. Izmaylov, J. L. Sonnenberg, D. Williams-Young, 
 F. Ding, F. Lipparini, F. Egidi, J. Goings, B. Peng, A. Petrone, 
 T. Henderson, D. Ranasinghe, V. G. Zakrzewski, J. Gao, N. Rega, 
 G. Zheng, W. Liang, M. Hada, M. Ehara, K. Toyota, R. Fukuda, 
 J. Hasegawa, M. Ishida, T. Nakajima, Y. Honda, O. Kitao, H. Nakai, 
 T. Vreven, K. Throssell, J. A. Montgomery, Jr., J. E. Peralta, 
 F. Ogliaro, M. J. Bearpark, J. J. Heyd, E. N. Brothers, K. N. Kudin, 
 V. N. Staroverov, T. A. Keith, R. Kobayashi, J. Normand, 
 K. Raghavachari, A. P. Rendell, J. C. Burant, S. S. Iyengar, 
 J. Tomasi, M. Cossi, J. M. Millam, M. Klene, C. Adamo, R. Cammi, 
 J. W. Ochterski, R. L. Martin, K. Morokuma, O. Farkas, 
 J. B. Foresman, and D. J. Fox, Gaussian, Inc., Wallingford CT, 2016.
 
 ******************************************
 Gaussian 16:  ES64L-G16RevA.03 25-Dec-2016
                14-Oct-2019 
 ******************************************
 %nprocshared=24
 Will use up to   24 processors via shared memory.
 %mem=10GB
 %chk=mop_plus.chk
 --------------------------------------------------------------
 #P opt freq b3lyp/6-31g(d) geom=connectivity temperature=0.001
 --------------------------------------------------------------
 1/18=20,19=15,26=3,38=1,57=2,112=-1000/1,3;
 2/9=110,12=2,17=6,18=5,40=1/2;
 3/5=1,6=6,7=1,11=2,25=1,30=1,71=1,74=-5/1,2,3;
 4//1;
 5/5=2,38=5/2;
 6/7=2,8=2,9=2,10=2,28=1/1;
 7//1,2,3,16;
 1/18=20,19=15,26=3/3(2);
 2/9=110/2;
 99//99;
 2/9=110/2;
 3/5=1,6=6,7=1,11=2,25=1,30=1,71=1,74=-5/1,2,3;
 4/5=5,16=3,69=1/1;
 5/5=2,38=5/2;
 7//1,2,3,16;
 1/18=20,19=15,26=3/3(-5);
 2/9=110/2;
 6/7=2,8=2,9=2,10=2,19=2,28=1/1;
 99/9=1/99;
 Leave Link    1 at Mon Oct 14 01:57:32 2019, MaxMem=  1342177280 cpu:               1.2 elap:               0.1
 (Enter /apps/cent7/gaussian/g16-A.03/g16-haswell/g16/l101.exe)
 --------
 MOP Plus
 --------
 Symbolic Z-matrix:
 Charge =  1 Multiplicity = 1
 C                     0.47094  -1.02444  -0.65493 
 C                     1.31227  -2.31267  -0.7199 
 C                     1.08349   0.18397  -0.62192 
 O                    -0.95665  -1.10334  -0.62942 
 C                    -1.45937  -1.07924  -1.96792 
 H                     2.24872  -2.15229  -0.22772 
 H                     0.78563  -3.10749  -0.23429 
 H                     1.48703  -2.57332  -1.74285 
 H                     2.01377   0.12675  -1.14747 
 H                     0.45553   0.91497  -1.08691 
 H                    -1.06578  -1.91242  -2.5118 
 H                    -2.52757  -1.13828  -1.94883 
 H                    -1.16093  -0.169    -2.44467 
 H                     1.26479   0.46429   0.39466 
 
 ITRead=  0  0  0  0  0  0  0  0  0  0  0  0  0  0
 MicOpt= -1 -1 -1 -1 -1 -1 -1 -1 -1 -1 -1 -1 -1 -1
 NAtoms=     14 NQM=       14 NQMF=       0 NMMI=      0 NMMIF=      0
                NMic=       0 NMicF=      0.
                    Isotopes and Nuclear Properties:
 (Nuclear quadrupole moments (NQMom) in fm**2, nuclear magnetic moments (NMagM)
  in nuclear magnetons)

  Atom         1           2           3           4           5           6           7           8           9          10
 IAtWgt=          12          12          12          16          12           1           1           1           1           1
 AtmWgt=  12.0000000  12.0000000  12.0000000  15.9949146  12.0000000   1.0078250   1.0078250   1.0078250   1.0078250   1.0078250
 NucSpn=           0           0           0           0           0           1           1           1           1           1
 AtZEff=  -0.0000000  -0.0000000  -0.0000000  -0.0000000  -0.0000000  -0.0000000  -0.0000000  -0.0000000  -0.0000000  -0.0000000
 NQMom=    0.0000000   0.0000000   0.0000000   0.0000000   0.0000000   0.0000000   0.0000000   0.0000000   0.0000000   0.0000000
 NMagM=    0.0000000   0.0000000   0.0000000   0.0000000   0.0000000   2.7928460   2.7928460   2.7928460   2.7928460   2.7928460
 AtZNuc=   6.0000000   6.0000000   6.0000000   8.0000000   6.0000000   1.0000000   1.0000000   1.0000000   1.0000000   1.0000000

  Atom        11          12          13          14
 IAtWgt=           1           1           1           1
 AtmWgt=   1.0078250   1.0078250   1.0078250   1.0078250
 NucSpn=           1           1           1           1
 AtZEff=  -0.0000000  -0.0000000  -0.0000000  -0.0000000
 NQMom=    0.0000000   0.0000000   0.0000000   0.0000000
 NMagM=    2.7928460   2.7928460   2.7928460   2.7928460
 AtZNuc=   1.0000000   1.0000000   1.0000000   1.0000000
 Leave Link  101 at Mon Oct 14 01:57:32 2019, MaxMem=  1342177280 cpu:               5.6 elap:               0.3
 (Enter /apps/cent7/gaussian/g16-A.03/g16-haswell/g16/l103.exe)

 GradGradGradGradGradGradGradGradGradGradGradGradGradGradGradGradGradGrad
 Berny optimization.
 Initialization pass.
                           ----------------------------
                           !    Initial Parameters    !
                           ! (Angstroms and Degrees)  !
 --------------------------                            --------------------------
 ! Name  Definition              Value          Derivative Info.                !
 --------------------------------------------------------------------------------
 ! R1    R(1,2)                  1.54           estimate D2E/DX2                !
 ! R2    R(1,3)                  1.3552         estimate D2E/DX2                !
 ! R3    R(1,4)                  1.43           estimate D2E/DX2                !
 ! R4    R(2,6)                  1.07           estimate D2E/DX2                !
 ! R5    R(2,7)                  1.07           estimate D2E/DX2                !
 ! R6    R(2,8)                  1.07           estimate D2E/DX2                !
 ! R7    R(3,9)                  1.07           estimate D2E/DX2                !
 ! R8    R(3,10)                 1.07           estimate D2E/DX2                !
 ! R9    R(3,14)                 1.07           estimate D2E/DX2                !
 ! R10   R(4,5)                  1.43           estimate D2E/DX2                !
 ! R11   R(5,11)                 1.07           estimate D2E/DX2                !
 ! R12   R(5,12)                 1.07           estimate D2E/DX2                !
 ! R13   R(5,13)                 1.07           estimate D2E/DX2                !
 ! A1    A(2,1,3)              120.0            estimate D2E/DX2                !
 ! A2    A(2,1,4)              120.0            estimate D2E/DX2                !
 ! A3    A(3,1,4)              120.0            estimate D2E/DX2                !
 ! A4    A(1,2,6)              109.4712         estimate D2E/DX2                !
 ! A5    A(1,2,7)              109.4712         estimate D2E/DX2                !
 ! A6    A(1,2,8)              109.4712         estimate D2E/DX2                !
 ! A7    A(6,2,7)              109.4712         estimate D2E/DX2                !
 ! A8    A(6,2,8)              109.4712         estimate D2E/DX2                !
 ! A9    A(7,2,8)              109.4712         estimate D2E/DX2                !
 ! A10   A(1,3,9)              109.4712         estimate D2E/DX2                !
 ! A11   A(1,3,10)             109.4712         estimate D2E/DX2                !
 ! A12   A(1,3,14)             109.4712         estimate D2E/DX2                !
 ! A13   A(9,3,10)             109.4712         estimate D2E/DX2                !
 ! A14   A(9,3,14)             109.4712         estimate D2E/DX2                !
 ! A15   A(10,3,14)            109.4712         estimate D2E/DX2                !
 ! A16   A(1,4,5)              109.4712         estimate D2E/DX2                !
 ! A17   A(4,5,11)             109.4712         estimate D2E/DX2                !
 ! A18   A(4,5,12)             109.4712         estimate D2E/DX2                !
 ! A19   A(4,5,13)             109.4712         estimate D2E/DX2                !
 ! A20   A(11,5,12)            109.4712         estimate D2E/DX2                !
 ! A21   A(11,5,13)            109.4712         estimate D2E/DX2                !
 ! A22   A(12,5,13)            109.4712         estimate D2E/DX2                !
 ! D1    D(3,1,2,6)             30.0            estimate D2E/DX2                !
 ! D2    D(3,1,2,7)            150.0            estimate D2E/DX2                !
 ! D3    D(3,1,2,8)            -90.0            estimate D2E/DX2                !
 ! D4    D(4,1,2,6)           -150.0            estimate D2E/DX2                !
 ! D5    D(4,1,2,7)            -30.0            estimate D2E/DX2                !
 ! D6    D(4,1,2,8)             90.0            estimate D2E/DX2                !
 ! D7    D(2,1,3,9)             30.0            estimate D2E/DX2                !
 ! D8    D(2,1,3,10)           150.0            estimate D2E/DX2                !
 ! D9    D(2,1,3,14)           -90.0            estimate D2E/DX2                !
 ! D10   D(4,1,3,9)           -150.0            estimate D2E/DX2                !
 ! D11   D(4,1,3,10)           -30.0            estimate D2E/DX2                !
 ! D12   D(4,1,3,14)            90.0            estimate D2E/DX2                !
 ! D13   D(2,1,4,5)            -90.0            estimate D2E/DX2                !
 ! D14   D(3,1,4,5)             90.0            estimate D2E/DX2                !
 ! D15   D(1,4,5,11)            60.0            estimate D2E/DX2                !
 ! D16   D(1,4,5,12)           180.0            estimate D2E/DX2                !
 ! D17   D(1,4,5,13)           -60.0            estimate D2E/DX2                !
 --------------------------------------------------------------------------------
 Trust Radius=3.00D-01 FncErr=1.00D-07 GrdErr=1.00D-06 EigMax=2.50D+02 EigMin=1.00D-04
 Number of steps in this run=     62 maximum allowed number of steps=    100.
 GradGradGradGradGradGradGradGradGradGradGradGradGradGradGradGradGradGrad

 Leave Link  103 at Mon Oct 14 01:57:32 2019, MaxMem=  1342177280 cpu:               0.9 elap:               0.1
 (Enter /apps/cent7/gaussian/g16-A.03/g16-haswell/g16/l202.exe)
                          Input orientation:                          
 ---------------------------------------------------------------------
 Center     Atomic      Atomic             Coordinates (Angstroms)
 Number     Number       Type             X           Y           Z
 ---------------------------------------------------------------------
      1          6           0        0.470940   -1.024444   -0.654927
      2          6           0        1.312274   -2.312674   -0.719902
      3          6           0        1.083487    0.183970   -0.621925
      4          8           0       -0.956653   -1.103343   -0.629417
      5          6           0       -1.459373   -1.079242   -1.967921
      6          1           0        2.248718   -2.152287   -0.227715
      7          1           0        0.785633   -3.107486   -0.234286
      8          1           0        1.487033   -2.573318   -1.742851
      9          1           0        2.013771    0.126752   -1.147470
     10          1           0        0.455532    0.914971   -1.086909
     11          1           0       -1.065777   -1.912416   -2.511799
     12          1           0       -2.527573   -1.138278   -1.948833
     13          1           0       -1.160931   -0.168998   -2.444669
     14          1           0        1.264794    0.464292    0.394661
 ---------------------------------------------------------------------
                    Distance matrix (angstroms):
                    1          2          3          4          5
     1  C    0.000000
     2  C    1.540000   0.000000
     3  C    1.355200   2.509019   0.000000
     4  O    1.430000   2.572683   2.412344   0.000000
     5  C    2.335180   3.280386   3.142220   1.430000   0.000000
     6  H    2.148263   1.070000   2.640315   3.396477   4.234346
     7  H    2.148263   1.070000   3.327561   2.684824   3.487021
     8  H    2.148263   1.070000   3.003658   3.061399   3.311228
     9  H    1.987002   2.574046   1.070000   3.256522   3.767001
    10  H    1.987002   3.359523   1.070000   2.505425   2.901711
    11  H    2.568651   3.004368   3.547646   2.051796   1.070000
    12  H    3.267757   4.199274   4.068019   2.051796   1.070000
    13  H    2.568651   3.699582   2.912798   2.051796   1.070000
    14  H    1.987002   2.992666   1.070000   2.905348   3.922420
                    6          7          8          9         10
     6  H    0.000000
     7  H    1.747303   0.000000
     8  H    1.747303   1.747303   0.000000
     9  H    2.468839   3.578061   2.814660   0.000000
    10  H    3.655380   4.125057   3.696271   1.747303   0.000000
    11  H    4.032425   3.169065   2.746801   3.937413   3.512664
    12  H    5.177202   4.218386   4.268353   4.781871   3.722588
    13  H    4.524823   4.160482   3.644862   3.442227   2.373068
    14  H    2.863904   3.658247   3.720944   1.747303   1.747303
                   11         12         13         14
    11  H    0.000000
    12  H    1.747303   0.000000
    13  H    1.747303   1.747303   0.000000
    14  H    4.419029   4.737325   3.787743   0.000000
 Stoichiometry    C4H9O(1+)
 Framework group  C1[X(C4H9O)]
 Deg. of freedom    36
 Full point group                 C1      NOp   1
 Largest Abelian subgroup         C1      NOp   1
 Largest concise Abelian subgroup C1      NOp   1
                         Standard orientation:                         
 ---------------------------------------------------------------------
 Center     Atomic      Atomic             Coordinates (Angstroms)
 Number     Number       Type             X           Y           Z
 ---------------------------------------------------------------------
      1          6           0       -0.452129    0.077143   -0.157954
      2          6           0       -1.274215   -1.198864    0.102009
      3          6           0       -0.978942    1.292584    0.127944
      4          8           0        0.867126   -0.020521   -0.701026
      5          6           0        1.814698   -0.126238    0.364728
      6          1           0       -2.316019   -0.980184   -0.006267
      7          1           0       -0.993182   -1.953851   -0.602204
      8          1           0       -1.084634   -1.549134    1.095120
      9          1           0       -1.662202    1.201610    0.946344
     10          1           0       -0.193000    1.968584    0.392935
     11          1           0        1.602459   -0.999573    0.945367
     12          1           0        2.801833   -0.199316   -0.041627
     13          1           0        1.748825    0.741070    0.987895
     14          1           0       -1.497568    1.667213   -0.729715
 ---------------------------------------------------------------------
 Rotational constants (GHZ):           7.2677786           4.0042803           3.0481707
 Leave Link  202 at Mon Oct 14 01:57:32 2019, MaxMem=  1342177280 cpu:               0.5 elap:               0.0
 (Enter /apps/cent7/gaussian/g16-A.03/g16-haswell/g16/l301.exe)
 Standard basis: 6-31G(d) (6D, 7F)
 Ernie: Thresh=  0.10000D-02 Tol=  0.10000D-05 Strict=F.
 There are    93 symmetry adapted cartesian basis functions of A   symmetry.
 There are    93 symmetry adapted basis functions of A   symmetry.
    93 basis functions,   176 primitive gaussians,    93 cartesian basis functions
    20 alpha electrons       20 beta electrons
       nuclear repulsion energy       188.1335200810 Hartrees.
 IExCor=  402 DFT=T Ex+Corr=B3LYP ExCW=0 ScaHFX=  0.200000
 ScaDFX=  0.800000  0.720000  1.000000  0.810000 ScalE2=  1.000000  1.000000
 IRadAn=      5 IRanWt=     -1 IRanGd=            0 ICorTp=0 IEmpDi=  4
 NAtoms=   14 NActive=   14 NUniq=   14 SFac= 1.00D+00 NAtFMM=   60 NAOKFM=F Big=F
 Integral buffers will be    131072 words long.
 Raffenetti 2 integral format.
 Two-electron integral symmetry is turned on.
 Leave Link  301 at Mon Oct 14 01:57:32 2019, MaxMem=  1342177280 cpu:               1.3 elap:               0.1
 (Enter /apps/cent7/gaussian/g16-A.03/g16-haswell/g16/l302.exe)
 NPDir=0 NMtPBC=     1 NCelOv=     1 NCel=       1 NClECP=     1 NCelD=      1
         NCelK=      1 NCelE2=     1 NClLst=     1 CellRange=     0.0.
 One-electron integrals computed using PRISM.
 One-electron integral symmetry used in STVInt
 NBasis=    93 RedAO= T EigKep=  3.82D-03  NBF=    93
 NBsUse=    93 1.00D-06 EigRej= -1.00D+00 NBFU=    93
 Precomputing XC quadrature grid using
 IXCGrd= 4 IRadAn=           5 IRanWt=          -1 IRanGd=           0 AccXCQ= 0.00D+00.
 Generated NRdTot=       0 NPtTot=           0 NUsed=           0 NTot=          32
 NSgBfM=    93    93    93    93    93 MxSgAt=    14 MxSgA2=    14.
 Leave Link  302 at Mon Oct 14 01:57:32 2019, MaxMem=  1342177280 cpu:               3.1 elap:               0.2
 (Enter /apps/cent7/gaussian/g16-A.03/g16-haswell/g16/l303.exe)
 DipDrv:  MaxL=1.
 Leave Link  303 at Mon Oct 14 01:57:32 2019, MaxMem=  1342177280 cpu:               0.7 elap:               0.1
 (Enter /apps/cent7/gaussian/g16-A.03/g16-haswell/g16/l401.exe)
 ExpMin= 1.61D-01 ExpMax= 5.48D+03 ExpMxC= 8.25D+02 IAcc=3 IRadAn=         5 AccDes= 0.00D+00
 Harris functional with IExCor=  402 and IRadAn=       5 diagonalized for initial guess.
 HarFok:  IExCor=  402 AccDes= 0.00D+00 IRadAn=         5 IDoV= 1 UseB2=F ITyADJ=14
 ICtDFT=  3500011 ScaDFX=  1.000000  1.000000  1.000000  1.000000
 FoFCou: FMM=F IPFlag=           0 FMFlag=      100000 FMFlg1=           0
         NFxFlg=           0 DoJE=T BraDBF=F KetDBF=T FulRan=T
         wScrn=  0.000000 ICntrl=       500 IOpCl=  0 I1Cent=   200000004 NGrid=           0
         NMat0=    1 NMatS0=      1 NMatT0=    0 NMatD0=    1 NMtDS0=    0 NMtDT0=    0
 Petite list used in FoFCou.
 Harris En= -232.823008142604    
 JPrj=0 DoOrth=F DoCkMO=F.
 Leave Link  401 at Mon Oct 14 01:57:33 2019, MaxMem=  1342177280 cpu:               5.2 elap:               0.3
 (Enter /apps/cent7/gaussian/g16-A.03/g16-haswell/g16/l502.exe)
 Integral symmetry usage will be decided dynamically.
 Closed shell SCF:
 Using DIIS extrapolation, IDIIS=  1040.
 NGot=  1342177280 LenX=  1342156455 LenY=  1342147365
 Requested convergence on RMS density matrix=1.00D-08 within 128 cycles.
 Requested convergence on MAX density matrix=1.00D-06.
 Requested convergence on             energy=1.00D-06.
 No special actions if energy rises.
 Fock matrices will be formed incrementally for  20 cycles.
 Integral accuracy reduced to 1.0D-05 until final iterations.

 Cycle   1  Pass 0  IDiag  1:
 FoFJK:  IHMeth= 1 ICntrl=       0 DoSepK=F KAlg= 0 I1Cent=           0 FoldK=F
 IRaf= 990000000 NMat=       1 IRICut=       1 DoRegI=T DoRafI=F ISym2E= 0 IDoP0=0 IntGTp=1.
 FoFCou: FMM=F IPFlag=           0 FMFlag=      100000 FMFlg1=           0
         NFxFlg=           0 DoJE=F BraDBF=F KetDBF=F FulRan=T
         wScrn=  0.000000 ICntrl=         0 IOpCl=  0 I1Cent=           0 NGrid=           0
         NMat0=    1 NMatS0=      1 NMatT0=    0 NMatD0=    1 NMtDS0=    0 NMtDT0=    0
 Symmetry not used in FoFCou.
 E= -232.556238705909    
 DIIS: error= 3.62D-02 at cycle   1 NSaved=   1.
 NSaved= 1 IEnMin= 1 EnMin= -232.556238705909     IErMin= 1 ErrMin= 3.62D-02
 ErrMax= 3.62D-02  0.00D+00 EMaxC= 1.00D-01 BMatC= 1.79D-01 BMatP= 1.79D-01
 IDIUse=3 WtCom= 6.38D-01 WtEn= 3.62D-01
 Coeff-Com:  0.100D+01
 Coeff-En:   0.100D+01
 Coeff:      0.100D+01
 Gap=     0.067 Goal=   None    Shift=    0.000
 GapD=    0.067 DampG=0.500 DampE=0.500 DampFc=0.2500 IDamp=-1.
 Damping current iteration by 2.50D-01
 RMSDP=7.66D-03 MaxDP=1.40D-01              OVMax= 2.22D-01

 Cycle   2  Pass 0  IDiag  1:
 RMSU=  1.89D-03    CP:  9.91D-01
 E= -232.618142579013     Delta-E=       -0.061903873104 Rises=F Damp=T
 DIIS: error= 1.84D-02 at cycle   2 NSaved=   2.
 NSaved= 2 IEnMin= 2 EnMin= -232.618142579013     IErMin= 2 ErrMin= 1.84D-02
 ErrMax= 1.84D-02  0.00D+00 EMaxC= 1.00D-01 BMatC= 4.21D-02 BMatP= 1.79D-01
 IDIUse=3 WtCom= 8.16D-01 WtEn= 1.84D-01
 Coeff-Com: -0.790D+00 0.179D+01
 Coeff-En:   0.000D+00 0.100D+01
 Coeff:     -0.645D+00 0.165D+01
 Gap=     0.165 Goal=   None    Shift=    0.000
 RMSDP=2.50D-03 MaxDP=5.18D-02 DE=-6.19D-02 OVMax= 1.58D-01

 Cycle   3  Pass 0  IDiag  1:
 RMSU=  1.63D-03    CP:  9.75D-01  1.96D+00
 E= -232.717675321990     Delta-E=       -0.099532742977 Rises=F Damp=F
 DIIS: error= 7.95D-03 at cycle   3 NSaved=   3.
 NSaved= 3 IEnMin= 3 EnMin= -232.717675321990     IErMin= 3 ErrMin= 7.95D-03
 ErrMax= 7.95D-03  0.00D+00 EMaxC= 1.00D-01 BMatC= 8.70D-03 BMatP= 4.21D-02
 IDIUse=3 WtCom= 9.21D-01 WtEn= 7.95D-02
 Coeff-Com: -0.373D+00 0.869D+00 0.505D+00
 Coeff-En:   0.000D+00 0.000D+00 0.100D+01
 Coeff:     -0.344D+00 0.800D+00 0.544D+00
 Gap=     0.151 Goal=   None    Shift=    0.000
 RMSDP=1.09D-03 MaxDP=1.98D-02 DE=-9.95D-02 OVMax= 3.01D-02

 Cycle   4  Pass 0  IDiag  1:
 RMSU=  7.41D-04    CP:  9.80D-01  1.93D+00  5.25D-01
 E= -232.724191283843     Delta-E=       -0.006515961853 Rises=F Damp=F
 DIIS: error= 3.21D-03 at cycle   4 NSaved=   4.
 NSaved= 4 IEnMin= 4 EnMin= -232.724191283843     IErMin= 4 ErrMin= 3.21D-03
 ErrMax= 3.21D-03  0.00D+00 EMaxC= 1.00D-01 BMatC= 1.66D-03 BMatP= 8.70D-03
 IDIUse=3 WtCom= 9.68D-01 WtEn= 3.21D-02
 Coeff-Com: -0.578D-01 0.148D+00 0.303D+00 0.606D+00
 Coeff-En:   0.000D+00 0.000D+00 0.132D+00 0.868D+00
 Coeff:     -0.559D-01 0.144D+00 0.298D+00 0.615D+00
 Gap=     0.160 Goal=   None    Shift=    0.000
 RMSDP=4.23D-04 MaxDP=1.05D-02 DE=-6.52D-03 OVMax= 1.21D-02

 Cycle   5  Pass 0  IDiag  1:
 RMSU=  2.47D-04    CP:  9.80D-01  1.92D+00  6.57D-01  6.41D-01
 E= -232.725363316225     Delta-E=       -0.001172032382 Rises=F Damp=F
 DIIS: error= 1.01D-03 at cycle   5 NSaved=   5.
 NSaved= 5 IEnMin= 5 EnMin= -232.725363316225     IErMin= 5 ErrMin= 1.01D-03
 ErrMax= 1.01D-03  0.00D+00 EMaxC= 1.00D-01 BMatC= 1.60D-04 BMatP= 1.66D-03
 IDIUse=3 WtCom= 9.90D-01 WtEn= 1.01D-02
 Coeff-Com: -0.339D-02 0.127D-01 0.113D+00 0.334D+00 0.544D+00
 Coeff-En:   0.000D+00 0.000D+00 0.000D+00 0.304D-01 0.970D+00
 Coeff:     -0.335D-02 0.125D-01 0.111D+00 0.331D+00 0.548D+00
 Gap=     0.159 Goal=   None    Shift=    0.000
 RMSDP=1.41D-04 MaxDP=2.58D-03 DE=-1.17D-03 OVMax= 3.08D-03

 Cycle   6  Pass 0  IDiag  1:
 RMSU=  4.74D-05    CP:  9.79D-01  1.91D+00  6.47D-01  6.82D-01  4.84D-01
 E= -232.725498584604     Delta-E=       -0.000135268379 Rises=F Damp=F
 DIIS: error= 1.47D-04 at cycle   6 NSaved=   6.
 NSaved= 6 IEnMin= 6 EnMin= -232.725498584604     IErMin= 6 ErrMin= 1.47D-04
 ErrMax= 1.47D-04  0.00D+00 EMaxC= 1.00D-01 BMatC= 3.49D-06 BMatP= 1.60D-04
 IDIUse=3 WtCom= 9.99D-01 WtEn= 1.47D-03
 Coeff-Com:  0.728D-03-0.212D-02 0.203D-01 0.821D-01 0.211D+00 0.688D+00
 Coeff-En:   0.000D+00 0.000D+00 0.000D+00 0.000D+00 0.000D+00 0.100D+01
 Coeff:      0.727D-03-0.211D-02 0.202D-01 0.819D-01 0.210D+00 0.689D+00
 Gap=     0.159 Goal=   None    Shift=    0.000
 RMSDP=2.06D-05 MaxDP=2.57D-04 DE=-1.35D-04 OVMax= 3.66D-04

 Cycle   7  Pass 0  IDiag  1:
 RMSU=  6.87D-06    CP:  9.80D-01  1.92D+00  6.48D-01  6.88D-01  5.43D-01
                    CP:  7.68D-01
 E= -232.725502045471     Delta-E=       -0.000003460867 Rises=F Damp=F
 DIIS: error= 1.40D-05 at cycle   7 NSaved=   7.
 NSaved= 7 IEnMin= 7 EnMin= -232.725502045471     IErMin= 7 ErrMin= 1.40D-05
 ErrMax= 1.40D-05  0.00D+00 EMaxC= 1.00D-01 BMatC= 2.83D-08 BMatP= 3.49D-06
 IDIUse=1 WtCom= 1.00D+00 WtEn= 0.00D+00
 Coeff-Com: -0.291D-03 0.502D-04 0.108D-02 0.803D-02 0.290D-01 0.107D+00
 Coeff-Com:  0.855D+00
 Coeff:     -0.291D-03 0.502D-04 0.108D-02 0.803D-02 0.290D-01 0.107D+00
 Coeff:      0.855D+00
 Gap=     0.159 Goal=   None    Shift=    0.000
 RMSDP=2.54D-06 MaxDP=3.27D-05 DE=-3.46D-06 OVMax= 6.21D-05

 Initial convergence to 1.0D-05 achieved.  Increase integral accuracy.
 Cycle   8  Pass 1  IDiag  1:
 E= -232.725502166012     Delta-E=       -0.000000120541 Rises=F Damp=F
 DIIS: error= 5.52D-06 at cycle   1 NSaved=   1.
 NSaved= 1 IEnMin= 1 EnMin= -232.725502166012     IErMin= 1 ErrMin= 5.52D-06
 ErrMax= 5.52D-06  0.00D+00 EMaxC= 1.00D-01 BMatC= 6.46D-09 BMatP= 6.46D-09
 IDIUse=1 WtCom= 1.00D+00 WtEn= 0.00D+00
 Coeff-Com:  0.100D+01
 Coeff:      0.100D+01
 Gap=     0.159 Goal=   None    Shift=    0.000
 RMSDP=2.54D-06 MaxDP=3.27D-05 DE=-1.21D-07 OVMax= 4.02D-05

 Cycle   9  Pass 1  IDiag  1:
 RMSU=  2.09D-06    CP:  1.00D+00
 E= -232.725502163050     Delta-E=        0.000000002962 Rises=F Damp=F
 DIIS: error= 7.64D-06 at cycle   2 NSaved=   2.
 NSaved= 2 IEnMin= 1 EnMin= -232.725502166012     IErMin= 1 ErrMin= 5.52D-06
 ErrMax= 7.64D-06  0.00D+00 EMaxC= 1.00D-01 BMatC= 1.05D-08 BMatP= 6.46D-09
 IDIUse=1 WtCom= 1.00D+00 WtEn= 0.00D+00
 Coeff-Com:  0.565D+00 0.435D+00
 Coeff:      0.565D+00 0.435D+00
 Gap=     0.159 Goal=   None    Shift=    0.000
 RMSDP=1.08D-06 MaxDP=1.89D-05 DE= 2.96D-09 OVMax= 2.87D-05

 Cycle  10  Pass 1  IDiag  1:
 RMSU=  5.55D-07    CP:  1.00D+00  5.59D-01
 E= -232.725502172252     Delta-E=       -0.000000009201 Rises=F Damp=F
 DIIS: error= 1.83D-06 at cycle   3 NSaved=   3.
 NSaved= 3 IEnMin= 3 EnMin= -232.725502172252     IErMin= 3 ErrMin= 1.83D-06
 ErrMax= 1.83D-06  0.00D+00 EMaxC= 1.00D-01 BMatC= 6.12D-10 BMatP= 6.46D-09
 IDIUse=1 WtCom= 1.00D+00 WtEn= 0.00D+00
 Coeff-Com:  0.235D+00 0.240D+00 0.525D+00
 Coeff:      0.235D+00 0.240D+00 0.525D+00
 Gap=     0.159 Goal=   None    Shift=    0.000
 RMSDP=2.40D-07 MaxDP=5.86D-06 DE=-9.20D-09 OVMax= 7.26D-06

 Cycle  11  Pass 1  IDiag  1:
 RMSU=  2.04D-07    CP:  1.00D+00  6.00D-01  8.35D-01
 E= -232.725502172666     Delta-E=       -0.000000000415 Rises=F Damp=F
 DIIS: error= 4.99D-07 at cycle   4 NSaved=   4.
 NSaved= 4 IEnMin= 4 EnMin= -232.725502172666     IErMin= 4 ErrMin= 4.99D-07
 ErrMax= 4.99D-07  0.00D+00 EMaxC= 1.00D-01 BMatC= 5.89D-11 BMatP= 6.12D-10
 IDIUse=1 WtCom= 1.00D+00 WtEn= 0.00D+00
 Coeff-Com:  0.509D-02 0.384D-01 0.260D+00 0.697D+00
 Coeff:      0.509D-02 0.384D-01 0.260D+00 0.697D+00
 Gap=     0.159 Goal=   None    Shift=    0.000
 RMSDP=8.26D-08 MaxDP=1.49D-06 DE=-4.15D-10 OVMax= 3.01D-06

 Cycle  12  Pass 1  IDiag  1:
 RMSU=  5.99D-08    CP:  1.00D+00  6.04D-01  8.97D-01  7.81D-01
 E= -232.725502172719     Delta-E=       -0.000000000053 Rises=F Damp=F
 DIIS: error= 1.44D-07 at cycle   5 NSaved=   5.
 NSaved= 5 IEnMin= 5 EnMin= -232.725502172719     IErMin= 5 ErrMin= 1.44D-07
 ErrMax= 1.44D-07  0.00D+00 EMaxC= 1.00D-01 BMatC= 2.88D-12 BMatP= 5.89D-11
 IDIUse=1 WtCom= 1.00D+00 WtEn= 0.00D+00
 Coeff-Com: -0.870D-02 0.633D-02 0.772D-01 0.299D+00 0.626D+00
 Coeff:     -0.870D-02 0.633D-02 0.772D-01 0.299D+00 0.626D+00
 Gap=     0.159 Goal=   None    Shift=    0.000
 RMSDP=2.45D-08 MaxDP=3.27D-07 DE=-5.29D-11 OVMax= 1.01D-06

 Cycle  13  Pass 1  IDiag  1:
 RMSU=  1.96D-08    CP:  1.00D+00  6.09D-01  9.04D-01  8.17D-01  8.82D-01
 E= -232.725502172723     Delta-E=       -0.000000000004 Rises=F Damp=F
 DIIS: error= 3.24D-08 at cycle   6 NSaved=   6.
 NSaved= 6 IEnMin= 6 EnMin= -232.725502172723     IErMin= 6 ErrMin= 3.24D-08
 ErrMax= 3.24D-08  0.00D+00 EMaxC= 1.00D-01 BMatC= 1.26D-13 BMatP= 2.88D-12
 IDIUse=1 WtCom= 1.00D+00 WtEn= 0.00D+00
 Coeff-Com: -0.310D-02-0.360D-03 0.256D-02 0.412D-01 0.160D+00 0.799D+00
 Coeff:     -0.310D-02-0.360D-03 0.256D-02 0.412D-01 0.160D+00 0.799D+00
 Gap=     0.159 Goal=   None    Shift=    0.000
 RMSDP=9.42D-09 MaxDP=2.18D-07 DE=-4.26D-12 OVMax= 6.29D-07

 SCF Done:  E(RB3LYP) =  -232.725502173     A.U. after   13 cycles
            NFock= 13  Conv=0.94D-08     -V/T= 2.0082
 KE= 2.308383854761D+02 PE=-9.081965815848D+02 EE= 2.564991738550D+02
 Leave Link  502 at Mon Oct 14 01:57:34 2019, MaxMem=  1342177280 cpu:              35.9 elap:               1.5
 (Enter /apps/cent7/gaussian/g16-A.03/g16-haswell/g16/l601.exe)
 Copying SCF densities to generalized density rwf, IOpCl= 0 IROHF=0.

 **********************************************************************

            Population analysis using the SCF density.

 **********************************************************************

 Orbital symmetries:
       Occupied  (A) (A) (A) (A) (A) (A) (A) (A) (A) (A) (A) (A)
                 (A) (A) (A) (A) (A) (A) (A) (A)
       Virtual   (A) (A) (A) (A) (A) (A) (A) (A) (A) (A) (A) (A)
                 (A) (A) (A) (A) (A) (A) (A) (A) (A) (A) (A) (A)
                 (A) (A) (A) (A) (A) (A) (A) (A) (A) (A) (A) (A)
                 (A) (A) (A) (A) (A) (A) (A) (A) (A) (A) (A) (A)
                 (A) (A) (A) (A) (A) (A) (A) (A) (A) (A) (A) (A)
                 (A) (A) (A) (A) (A) (A) (A) (A) (A) (A) (A) (A)
                 (A)
 The electronic state is 1-A.
 Alpha  occ. eigenvalues --  -19.40514 -10.57036 -10.42154 -10.40609 -10.40432
 Alpha  occ. eigenvalues --   -1.27631  -1.05824  -0.94562  -0.90176  -0.78518
 Alpha  occ. eigenvalues --   -0.72156  -0.70538  -0.69661  -0.64208  -0.63568
 Alpha  occ. eigenvalues --   -0.62854  -0.62294  -0.59674  -0.55627  -0.49237
 Alpha virt. eigenvalues --   -0.33352  -0.12056  -0.08700  -0.05988  -0.05101
 Alpha virt. eigenvalues --   -0.04245  -0.02797  -0.01794  -0.00408   0.00950
 Alpha virt. eigenvalues --    0.01909   0.02537   0.08202   0.09168   0.29001
 Alpha virt. eigenvalues --    0.30706   0.32351   0.33780   0.34848   0.36837
 Alpha virt. eigenvalues --    0.39845   0.42692   0.44215   0.47501   0.51979
 Alpha virt. eigenvalues --    0.56285   0.63028   0.65893   0.67424   0.68409
 Alpha virt. eigenvalues --    0.70376   0.71893   0.72876   0.75365   0.79206
 Alpha virt. eigenvalues --    0.80067   0.80969   0.87867   0.92976   0.99608
 Alpha virt. eigenvalues --    1.10623   1.14806   1.18340   1.21257   1.28351
 Alpha virt. eigenvalues --    1.41286   1.51632   1.53582   1.60244   1.62381
 Alpha virt. eigenvalues --    1.73680   1.80106   1.85137   1.89785   1.93429
 Alpha virt. eigenvalues --    1.94256   1.98386   2.00401   2.07310   2.11392
 Alpha virt. eigenvalues --    2.15155   2.19176   2.23038   2.31955   2.43189
 Alpha virt. eigenvalues --    2.50750   2.61159   2.71645   3.72975   3.90526
 Alpha virt. eigenvalues --    4.04684   4.06082   4.24996
          Condensed to atoms (all electrons):
               1          2          3          4          5          6
     1  C    4.623307   0.361289   0.372992   0.313636  -0.019051  -0.025124
     2  C    0.361289   5.226549  -0.089683  -0.051647  -0.001300   0.367057
     3  C    0.372992  -0.089683   5.265255  -0.063660  -0.005544   0.000064
     4  O    0.313636  -0.051647  -0.063660   8.104424   0.196427   0.001857
     5  C   -0.019051  -0.001300  -0.005544   0.196427   4.953600   0.000093
     6  H   -0.025124   0.367057   0.000064   0.001857   0.000093   0.447285
     7  H   -0.022848   0.362103   0.004830   0.001303   0.000159  -0.021050
     8  H   -0.013307   0.353523  -0.000647   0.000185  -0.000302  -0.017154
     9  H   -0.026688  -0.001844   0.357479   0.003225  -0.000504   0.000299
    10  H   -0.024773   0.005599   0.355051  -0.002523   0.001419   0.000159
    11  H   -0.008632   0.004319  -0.000920  -0.036292   0.378430  -0.000110
    12  H    0.003819  -0.000136  -0.000157  -0.021589   0.388002   0.000002
    13  H   -0.008402  -0.000678   0.006496  -0.038726   0.373620   0.000002
    14  H   -0.011043  -0.000769   0.339804  -0.000562   0.000443  -0.000201
               7          8          9         10         11         12
     1  C   -0.022848  -0.013307  -0.026688  -0.024773  -0.008632   0.003819
     2  C    0.362103   0.353523  -0.001844   0.005599   0.004319  -0.000136
     3  C    0.004830  -0.000647   0.357479   0.355051  -0.000920  -0.000157
     4  O    0.001303   0.000185   0.003225  -0.002523  -0.036292  -0.021589
     5  C    0.000159  -0.000302  -0.000504   0.001419   0.378430   0.388002
     6  H   -0.021050  -0.017154   0.000299   0.000159  -0.000110   0.000002
     7  H    0.423966  -0.012680   0.000241  -0.000140  -0.000153  -0.000037
     8  H   -0.012680   0.421382  -0.000145  -0.000319   0.000838   0.000001
     9  H    0.000241  -0.000145   0.438634  -0.023072   0.000162   0.000011
    10  H   -0.000140  -0.000319  -0.023072   0.432021   0.000194  -0.000123
    11  H   -0.000153   0.000838   0.000162   0.000194   0.529172  -0.023799
    12  H   -0.000037   0.000001   0.000011  -0.000123  -0.023799   0.424156
    13  H    0.000076   0.000154  -0.000605   0.002795  -0.042733  -0.023663
    14  H   -0.000301   0.000239  -0.010562  -0.007528  -0.000021  -0.000004
              13         14
     1  C   -0.008402  -0.011043
     2  C   -0.000678  -0.000769
     3  C    0.006496   0.339804
     4  O   -0.038726  -0.000562
     5  C    0.373620   0.000443
     6  H    0.000002  -0.000201
     7  H    0.000076  -0.000301
     8  H    0.000154   0.000239
     9  H   -0.000605  -0.010562
    10  H    0.002795  -0.007528
    11  H   -0.042733  -0.000021
    12  H   -0.023663  -0.000004
    13  H    0.537217   0.000010
    14  H    0.000010   0.379720
 Mulliken charges:
               1
     1  C    0.484826
     2  C   -0.534383
     3  C   -0.541359
     4  O   -0.406058
     5  C   -0.265495
     6  H    0.246821
     7  H    0.264532
     8  H    0.268233
     9  H    0.263368
    10  H    0.261240
    11  H    0.199544
    12  H    0.253517
    13  H    0.194438
    14  H    0.310775
 Sum of Mulliken charges =   1.00000
 Mulliken charges with hydrogens summed into heavy atoms:
               1
     1  C    0.484826
     2  C    0.245203
     3  C    0.294024
     4  O   -0.406058
     5  C    0.382004
 Electronic spatial extent (au):  <R**2>=            458.7186
 Charge=              1.0000 electrons
 Dipole moment (field-independent basis, Debye):
    X=             -2.0752    Y=              0.5018    Z=              1.4830  Tot=              2.5995
 Quadrupole moment (field-independent basis, Debye-Ang):
   XX=            -17.4957   YY=            -22.5630   ZZ=            -28.2048
   XY=             -0.7879   XZ=              1.8420   YZ=             -0.5647
 Traceless Quadrupole moment (field-independent basis, Debye-Ang):
   XX=              5.2588   YY=              0.1915   ZZ=             -5.4503
   XY=             -0.7879   XZ=              1.8420   YZ=             -0.5647
 Octapole moment (field-independent basis, Debye-Ang**2):
  XXX=              8.1727  YYY=              1.9155  ZZZ=             -0.1909  XYY=             -6.6776
  XXY=             -0.3725  XXZ=              1.1317  XZZ=             -2.1939  YZZ=              0.0251
  YYZ=              0.0875  XYZ=              1.2195
 Hexadecapole moment (field-independent basis, Debye-Ang**3):
 XXXX=           -259.0324 YYYY=           -160.7552 ZZZZ=            -64.2448 XXXY=             -4.4322
 XXXZ=             -1.0387 YYYX=             -0.6084 YYYZ=             -0.1477 ZZZX=             -1.3466
 ZZZY=             -2.2061 XXYY=            -74.4602 XXZZ=            -60.7295 YYZZ=            -35.1564
 XXYZ=             -1.3705 YYXZ=              2.3972 ZZXY=             -1.6365
 N-N= 1.881335200810D+02 E-N=-9.081965847295D+02  KE= 2.308383854761D+02
 No NMR shielding tensors so no spin-rotation constants.
 Leave Link  601 at Mon Oct 14 01:57:34 2019, MaxMem=  1342177280 cpu:               2.8 elap:               0.1
 (Enter /apps/cent7/gaussian/g16-A.03/g16-haswell/g16/l701.exe)
 ... and contract with generalized density number  0.
 Compute integral first derivatives.
 Leave Link  701 at Mon Oct 14 01:57:35 2019, MaxMem=  1342177280 cpu:               2.7 elap:               0.1
 (Enter /apps/cent7/gaussian/g16-A.03/g16-haswell/g16/l702.exe)
 L702 exits ... SP integral derivatives will be done elsewhere.
 Leave Link  702 at Mon Oct 14 01:57:35 2019, MaxMem=  1342177280 cpu:               0.5 elap:               0.0
 (Enter /apps/cent7/gaussian/g16-A.03/g16-haswell/g16/l703.exe)
 Integral derivatives from FoFJK, PRISM(SPDF).
 Compute integral first derivatives, UseDBF=F ICtDFT=           0.
 Calling FoFJK, ICntrl=      2127 FMM=F ISym2X=0 I1Cent= 0 IOpClX= 0 NMat=1 NMatS=1 NMatT=0.
 FoFJK:  IHMeth= 1 ICntrl=    2127 DoSepK=F KAlg= 0 I1Cent=           0 FoldK=F
 IRaf=         0 NMat=       1 IRICut=       1 DoRegI=T DoRafI=F ISym2E= 0 IDoP0=0 IntGTp=1.
 FoFCou: FMM=F IPFlag=           0 FMFlag=      100000 FMFlg1=         800
         NFxFlg=           0 DoJE=F BraDBF=F KetDBF=F FulRan=T
         wScrn=  0.000000 ICntrl=      2127 IOpCl=  0 I1Cent=           0 NGrid=           0
         NMat0=    1 NMatS0=      1 NMatT0=    0 NMatD0=    1 NMtDS0=    0 NMtDT0=    0
 Symmetry not used in FoFCou.
 Leave Link  703 at Mon Oct 14 01:57:35 2019, MaxMem=  1342177280 cpu:               9.3 elap:               0.4
 (Enter /apps/cent7/gaussian/g16-A.03/g16-haswell/g16/l716.exe)
 Dipole        =-8.16426990D-01 1.97406881D-01 5.83464828D-01
 ***** Axes restored to original set *****
 -------------------------------------------------------------------
 Center     Atomic                   Forces (Hartrees/Bohr)
 Number     Number              X              Y              Z
 -------------------------------------------------------------------
      1        6          -0.080425398   -0.105636703    0.000691005
      2        6          -0.037286428    0.033352865    0.021146997
      3        6           0.013352115    0.053786638   -0.022023268
      4        8           0.091188887    0.000928134    0.018388851
      5        6          -0.003628383   -0.000224516   -0.015849922
      6        1           0.016589088    0.004413666    0.004245296
      7        1          -0.009832198   -0.014623462    0.003863852
      8        1           0.002315595   -0.003707666   -0.021376669
      9        1           0.021271330    0.001646577   -0.001683024
     10        1          -0.010401035    0.020309623   -0.000164479
     11        1           0.003233605   -0.014345419   -0.010052693
     12        1          -0.013655864   -0.000826113    0.008106629
     13        1           0.001766572    0.015691338   -0.009388480
     14        1           0.005512115    0.009235039    0.024095905
 -------------------------------------------------------------------
 Cartesian Forces:  Max     0.105636703 RMS     0.029580302
 Leave Link  716 at Mon Oct 14 01:57:35 2019, MaxMem=  1342177280 cpu:               0.6 elap:               0.0
 (Enter /apps/cent7/gaussian/g16-A.03/g16-haswell/g16/l103.exe)

 GradGradGradGradGradGradGradGradGradGradGradGradGradGradGradGradGradGrad
 Berny optimization.
 FormGI is forming the generalized inverse of G from B-inverse, IUseBI=4.
 Internal  Forces:  Max     0.089218769 RMS     0.020461155
 Search for a local minimum.
 Step number   1 out of a maximum of   62
 All quantities printed in internal units (Hartrees-Bohrs-Radians)
 RMS Force = .20461D-01 SwitMx=.10000D-02 MixMth= 1
 Mixed Optimization -- RFO/linear search
 Second derivative matrix not updated -- first step.
 ITU=  0
     Eigenvalues ---    0.00237   0.01295   0.01295   0.01436   0.02681
     Eigenvalues ---    0.07243   0.07243   0.08601   0.08601   0.10344
     Eigenvalues ---    0.10344   0.16000   0.16000   0.16000   0.16000
     Eigenvalues ---    0.16000   0.16000   0.16000   0.16000   0.16000
     Eigenvalues ---    0.25000   0.25000   0.25000   0.28519   0.37230
     Eigenvalues ---    0.37230   0.37230   0.37230   0.37230   0.37230
     Eigenvalues ---    0.37230   0.37230   0.37230   0.40989   0.40989
     Eigenvalues ---    0.53930
 RFO step:  Lambda=-4.98685254D-02 EMin= 2.36824247D-03
 Linear search not attempted -- first point.
 Maximum step size (   0.300) exceeded in Quadratic search.
    -- Step size scaled by   0.866
 Iteration  1 RMS(Cart)=  0.08766017 RMS(Int)=  0.00357762
 Iteration  2 RMS(Cart)=  0.00457721 RMS(Int)=  0.00046094
 Iteration  3 RMS(Cart)=  0.00001325 RMS(Int)=  0.00046085
 Iteration  4 RMS(Cart)=  0.00000001 RMS(Int)=  0.00046085
 ITry= 1 IFail=0 DXMaxC= 2.23D-01 DCOld= 1.00D+10 DXMaxT= 3.00D-01 DXLimC= 3.00D+00 Rises=F
 Variable       Old X    -DE/DX   Delta X   Delta X   Delta X     New X
                                 (Linear)    (Quad)   (Total)
    R1        2.91018  -0.03200   0.00000  -0.08272  -0.08272   2.82746
    R2        2.56096   0.08922   0.00000   0.13114   0.13114   2.69209
    R3        2.70231  -0.07900   0.00000  -0.14879  -0.14879   2.55352
    R4        2.02201   0.01713   0.00000   0.03514   0.03514   2.05715
    R5        2.02201   0.01746   0.00000   0.03580   0.03580   2.05781
    R6        2.02201   0.02172   0.00000   0.04455   0.04455   2.06656
    R7        2.02201   0.01923   0.00000   0.03945   0.03945   2.06146
    R8        2.02201   0.02005   0.00000   0.04113   0.04113   2.06314
    R9        2.02201   0.02625   0.00000   0.05384   0.05384   2.07585
   R10        2.70231   0.02977   0.00000   0.05607   0.05607   2.75838
   R11        2.02201   0.01747   0.00000   0.03583   0.03583   2.05784
   R12        2.02201   0.01382   0.00000   0.02835   0.02835   2.05036
   R13        2.02201   0.01802   0.00000   0.03697   0.03697   2.05898
    A1        2.09440   0.02061   0.00000   0.05953   0.05937   2.15376
    A2        2.09440  -0.01468   0.00000  -0.04241  -0.04254   2.05186
    A3        2.09440  -0.00593   0.00000  -0.01712  -0.01727   2.07713
    A4        1.91063   0.00026   0.00000   0.00344   0.00324   1.91387
    A5        1.91063   0.00285   0.00000   0.01468   0.01455   1.92518
    A6        1.91063  -0.00483   0.00000  -0.02524  -0.02530   1.88533
    A7        1.91063   0.00294   0.00000   0.02273   0.02247   1.93310
    A8        1.91063  -0.00019   0.00000  -0.00666  -0.00680   1.90384
    A9        1.91063  -0.00102   0.00000  -0.00894  -0.00893   1.90171
   A10        1.91063   0.00640   0.00000   0.02964   0.02865   1.93928
   A11        1.91063   0.01031   0.00000   0.04652   0.04560   1.95624
   A12        1.91063  -0.00179   0.00000  -0.01458  -0.01441   1.89622
   A13        1.91063  -0.00035   0.00000   0.01297   0.01115   1.92178
   A14        1.91063  -0.00672   0.00000  -0.03566  -0.03555   1.87508
   A15        1.91063  -0.00786   0.00000  -0.03888  -0.03866   1.87198
   A16        1.91063   0.02906   0.00000   0.08391   0.08391   1.99454
   A17        1.91063   0.00585   0.00000   0.02638   0.02592   1.93656
   A18        1.91063  -0.01503   0.00000  -0.06645  -0.06647   1.84417
   A19        1.91063   0.00620   0.00000   0.02778   0.02733   1.93796
   A20        1.91063   0.00097   0.00000  -0.00038  -0.00041   1.91023
   A21        1.91063   0.00126   0.00000   0.01407   0.01326   1.92389
   A22        1.91063   0.00074   0.00000  -0.00140  -0.00141   1.90922
    D1        0.52360  -0.00406   0.00000  -0.03652  -0.03657   0.48703
    D2        2.61799   0.00144   0.00000   0.00242   0.00253   2.62052
    D3       -1.57080  -0.00102   0.00000  -0.01501  -0.01507  -1.58587
    D4       -2.61799  -0.00167   0.00000  -0.00432  -0.00437  -2.62236
    D5       -0.52360   0.00383   0.00000   0.03461   0.03473  -0.48887
    D6        1.57080   0.00137   0.00000   0.01719   0.01713   1.58793
    D7        0.52360  -0.00383   0.00000  -0.01569  -0.01621   0.50739
    D8        2.61799   0.00598   0.00000   0.04683   0.04784   2.66584
    D9       -1.57080   0.00158   0.00000   0.01877   0.01895  -1.55185
   D10       -2.61799  -0.00622   0.00000  -0.04788  -0.04885  -2.66684
   D11       -0.52360   0.00359   0.00000   0.01464   0.01520  -0.50840
   D12        1.57080  -0.00081   0.00000  -0.01343  -0.01369   1.55710
   D13       -1.57080  -0.00084   0.00000  -0.01124  -0.01051  -1.58131
   D14        1.57080   0.00155   0.00000   0.02096   0.02023   1.59102
   D15        1.04720   0.00468   0.00000   0.02826   0.02888   1.07607
   D16        3.14159   0.00025   0.00000   0.00326   0.00328  -3.13831
   D17       -1.04720  -0.00425   0.00000  -0.02214  -0.02277  -1.06997
         Item               Value     Threshold  Converged?
 Maximum Force            0.089219     0.000450     NO 
 RMS     Force            0.020461     0.000300     NO 
 Maximum Displacement     0.223152     0.001800     NO 
 RMS     Displacement     0.088690     0.001200     NO 
 Predicted change in Energy=-2.700414D-02
 Lowest energy point so far.  Saving SCF results.
 GradGradGradGradGradGradGradGradGradGradGradGradGradGradGradGradGradGrad

 Leave Link  103 at Mon Oct 14 01:57:35 2019, MaxMem=  1342177280 cpu:               0.8 elap:               0.1
 (Enter /apps/cent7/gaussian/g16-A.03/g16-haswell/g16/l202.exe)
                          Input orientation:                          
 ---------------------------------------------------------------------
 Center     Atomic      Atomic             Coordinates (Angstroms)
 Number     Number       Type             X           Y           Z
 ---------------------------------------------------------------------
      1          6           0        0.502321   -1.044765   -0.678680
      2          6           0        1.273276   -2.326611   -0.713312
      3          6           0        1.117182    0.238710   -0.614609
      4          8           0       -0.846460   -1.126336   -0.671906
      5          6           0       -1.454926   -1.117811   -1.998684
      6          1           0        2.227999   -2.193495   -0.207518
      7          1           0        0.698345   -3.126041   -0.248367
      8          1           0        1.456192   -2.583215   -1.760499
      9          1           0        2.099356    0.228025   -1.089193
     10          1           0        0.493136    1.015536   -1.060768
     11          1           0       -1.125521   -1.975151   -2.583748
     12          1           0       -2.524771   -1.184617   -1.830746
     13          1           0       -1.228765   -0.191988   -2.526750
     14          1           0        1.264513    0.505259    0.440817
 ---------------------------------------------------------------------
                    Distance matrix (angstroms):
                    1          2          3          4          5
     1  C    0.000000
     2  C    1.496228   0.000000
     3  C    1.424594   2.571960   0.000000
     4  O    1.351262   2.436320   2.392180   0.000000
     5  C    2.361897   3.249071   3.220489   1.459672   0.000000
     6  H    2.125920   1.088597   2.704673   3.287367   4.234301
     7  H    2.134315   1.088947   3.410440   2.562153   3.425371
     8  H    2.108798   1.093574   3.064515   2.934236   3.267835
     9  H    2.083035   2.711062   1.090876   3.268984   3.907859
    10  H    2.095451   3.449535   1.091764   2.556041   3.037400
    11  H    2.672971   3.062072   3.715966   2.110333   1.088963
    12  H    3.241928   4.120433   4.094956   2.040351   1.085004
    13  H    2.671937   3.755713   3.057000   2.111779   1.089565
    14  H    2.058346   3.058036   1.098490   2.890755   3.997608
                    6          7          8          9         10
     6  H    0.000000
     7  H    1.791969   0.000000
     8  H    1.777447   1.776382   0.000000
     9  H    2.580244   3.730894   2.960976   0.000000
    10  H    3.746420   4.225489   3.790529   1.789113   0.000000
    11  H    4.115852   3.178842   2.777179   4.181807   3.726087
    12  H    5.122648   4.081853   4.220080   4.891626   3.813305
    13  H    4.618883   4.184907   3.676153   3.649570   2.563622
    14  H    2.938012   3.739233   3.797527   1.764866   1.763565
                   11         12         13         14
    11  H    0.000000
    12  H    1.774783   0.000000
    13  H    1.787059   1.774645   0.000000
    14  H    4.583961   4.730154   3.938152   0.000000
 Stoichiometry    C4H9O(1+)
 Framework group  C1[X(C4H9O)]
 Deg. of freedom    36
 Full point group                 C1      NOp   1
 RotChk:  IX=0 Diff= 1.07D-01
 Largest Abelian subgroup         C1      NOp   1
 Largest concise Abelian subgroup C1      NOp   1
                         Standard orientation:                         
 ---------------------------------------------------------------------
 Center     Atomic      Atomic             Coordinates (Angstroms)
 Number     Number       Type             X           Y           Z
 ---------------------------------------------------------------------
      1          6           0       -0.463464    0.027679   -0.134714
      2          6           0       -1.133619   -1.288127    0.106624
      3          6           0       -1.083867    1.283278    0.126133
      4          8           0        0.780762    0.008360   -0.661440
      5          6           0        1.851692   -0.025368    0.329829
      6          1           0       -2.212048   -1.172296    0.013784
      7          1           0       -0.763855   -2.034753   -0.594540
      8          1           0       -0.894722   -1.607771    1.124789
      9          1           0       -1.808026    1.202631    0.937983
     10          1           0       -0.353596    2.063189    0.350616
     11          1           0        1.791138   -0.926577    0.938102
     12          1           0        2.776229   -0.034207   -0.237963
     13          1           0        1.825326    0.859962    0.964374
     14          1           0       -1.630991    1.598172   -0.772853
 ---------------------------------------------------------------------
 Rotational constants (GHZ):           7.0549045           4.0878150           3.0159341
 Leave Link  202 at Mon Oct 14 01:57:35 2019, MaxMem=  1342177280 cpu:               0.3 elap:               0.0
 (Enter /apps/cent7/gaussian/g16-A.03/g16-haswell/g16/l301.exe)
 Standard basis: 6-31G(d) (6D, 7F)
 Ernie: Thresh=  0.10000D-02 Tol=  0.10000D-05 Strict=F.
 There are    93 symmetry adapted cartesian basis functions of A   symmetry.
 There are    93 symmetry adapted basis functions of A   symmetry.
    93 basis functions,   176 primitive gaussians,    93 cartesian basis functions
    20 alpha electrons       20 beta electrons
       nuclear repulsion energy       187.5303340372 Hartrees.
 IExCor=  402 DFT=T Ex+Corr=B3LYP ExCW=0 ScaHFX=  0.200000
 ScaDFX=  0.800000  0.720000  1.000000  0.810000 ScalE2=  1.000000  1.000000
 IRadAn=      5 IRanWt=     -1 IRanGd=            0 ICorTp=0 IEmpDi=  4
 NAtoms=   14 NActive=   14 NUniq=   14 SFac= 1.00D+00 NAtFMM=   60 NAOKFM=F Big=F
 Integral buffers will be    131072 words long.
 Raffenetti 2 integral format.
 Two-electron integral symmetry is turned on.
 Leave Link  301 at Mon Oct 14 01:57:35 2019, MaxMem=  1342177280 cpu:               1.8 elap:               0.1
 (Enter /apps/cent7/gaussian/g16-A.03/g16-haswell/g16/l302.exe)
 NPDir=0 NMtPBC=     1 NCelOv=     1 NCel=       1 NClECP=     1 NCelD=      1
         NCelK=      1 NCelE2=     1 NClLst=     1 CellRange=     0.0.
 One-electron integrals computed using PRISM.
 One-electron integral symmetry used in STVInt
 NBasis=    93 RedAO= T EigKep=  4.51D-03  NBF=    93
 NBsUse=    93 1.00D-06 EigRej= -1.00D+00 NBFU=    93
 Precomputing XC quadrature grid using
 IXCGrd= 4 IRadAn=           5 IRanWt=          -1 IRanGd=           0 AccXCQ= 0.00D+00.
 Generated NRdTot=       0 NPtTot=           0 NUsed=           0 NTot=          32
 NSgBfM=    93    93    93    93    93 MxSgAt=    14 MxSgA2=    14.
 Leave Link  302 at Mon Oct 14 01:57:36 2019, MaxMem=  1342177280 cpu:               2.7 elap:               0.1
 (Enter /apps/cent7/gaussian/g16-A.03/g16-haswell/g16/l303.exe)
 DipDrv:  MaxL=1.
 Leave Link  303 at Mon Oct 14 01:57:36 2019, MaxMem=  1342177280 cpu:               0.5 elap:               0.0
 (Enter /apps/cent7/gaussian/g16-A.03/g16-haswell/g16/l401.exe)
 Initial guess from the checkpoint file:  "mop_plus.chk"
 B after Tr=    -0.000000   -0.000000   -0.000000
         Rot=    0.999349    0.005695   -0.010250   -0.034130 Ang=   4.14 deg.
 Guess basis will be translated and rotated to current coordinates.
 JPrj=2 DoOrth=T DoCkMO=T.
 Generating alternative initial guess.
 ExpMin= 1.61D-01 ExpMax= 5.48D+03 ExpMxC= 8.25D+02 IAcc=2 IRadAn=         4 AccDes= 0.00D+00
 Harris functional with IExCor=  402 and IRadAn=       4 diagonalized for initial guess.
 HarFok:  IExCor=  402 AccDes= 0.00D+00 IRadAn=         4 IDoV= 1 UseB2=F ITyADJ=14
 ICtDFT=  3500011 ScaDFX=  1.000000  1.000000  1.000000  1.000000
 FoFCou: FMM=F IPFlag=           0 FMFlag=      100000 FMFlg1=           0
         NFxFlg=           0 DoJE=T BraDBF=F KetDBF=T FulRan=T
         wScrn=  0.000000 ICntrl=       500 IOpCl=  0 I1Cent=   200000004 NGrid=           0
         NMat0=    1 NMatS0=      1 NMatT0=    0 NMatD0=    1 NMtDS0=    0 NMtDT0=    0
 Petite list used in FoFCou.
 Harris En= -232.831855275744    
 Leave Link  401 at Mon Oct 14 01:57:36 2019, MaxMem=  1342177280 cpu:               4.9 elap:               0.2
 (Enter /apps/cent7/gaussian/g16-A.03/g16-haswell/g16/l502.exe)
 Integral symmetry usage will be decided dynamically.
 Closed shell SCF:
 Using DIIS extrapolation, IDIIS=  1040.
 NGot=  1342177280 LenX=  1342156455 LenY=  1342147365
 Requested convergence on RMS density matrix=1.00D-08 within 128 cycles.
 Requested convergence on MAX density matrix=1.00D-06.
 Requested convergence on             energy=1.00D-06.
 No special actions if energy rises.
 Fock matrices will be formed incrementally for  20 cycles.
 Integral accuracy reduced to 1.0D-05 until final iterations.

 Cycle   1  Pass 0  IDiag  1:
 FoFJK:  IHMeth= 1 ICntrl=       0 DoSepK=F KAlg= 0 I1Cent=           0 FoldK=F
 IRaf= 990000000 NMat=       1 IRICut=       1 DoRegI=T DoRafI=F ISym2E= 0 IDoP0=0 IntGTp=1.
 FoFCou: FMM=F IPFlag=           0 FMFlag=      100000 FMFlg1=           0
         NFxFlg=           0 DoJE=F BraDBF=F KetDBF=F FulRan=T
         wScrn=  0.000000 ICntrl=         0 IOpCl=  0 I1Cent=           0 NGrid=           0
         NMat0=    1 NMatS0=      1 NMatT0=    0 NMatD0=    1 NMtDS0=    0 NMtDT0=    0
 Symmetry not used in FoFCou.
 E= -232.742659105597    
 DIIS: error= 8.47D-03 at cycle   1 NSaved=   1.
 NSaved= 1 IEnMin= 1 EnMin= -232.742659105597     IErMin= 1 ErrMin= 8.47D-03
 ErrMax= 8.47D-03  0.00D+00 EMaxC= 1.00D-01 BMatC= 6.83D-03 BMatP= 6.83D-03
 IDIUse=3 WtCom= 9.15D-01 WtEn= 8.47D-02
 Coeff-Com:  0.100D+01
 Coeff-En:   0.100D+01
 Coeff:      0.100D+01
 Gap=     1.633 Goal=   None    Shift=    0.000
 GapD=    1.633 DampG=2.000 DampE=1.000 DampFc=2.0000 IDamp=-1.
 RMSDP=1.51D-03 MaxDP=1.88D-02              OVMax= 3.70D-02

 Cycle   2  Pass 0  IDiag  1:
 RMSU=  1.50D-03    CP:  9.94D-01
 E= -232.753615482826     Delta-E=       -0.010956377228 Rises=F Damp=F
 DIIS: error= 2.98D-03 at cycle   2 NSaved=   2.
 NSaved= 2 IEnMin= 2 EnMin= -232.753615482826     IErMin= 2 ErrMin= 2.98D-03
 ErrMax= 2.98D-03  0.00D+00 EMaxC= 1.00D-01 BMatC= 1.29D-03 BMatP= 6.83D-03
 IDIUse=3 WtCom= 9.70D-01 WtEn= 2.98D-02
 Coeff-Com:  0.213D+00 0.787D+00
 Coeff-En:   0.000D+00 0.100D+01
 Coeff:      0.207D+00 0.793D+00
 Gap=     0.172 Goal=   None    Shift=    0.000
 RMSDP=5.27D-04 MaxDP=1.02D-02 DE=-1.10D-02 OVMax= 1.30D-02

 Cycle   3  Pass 0  IDiag  1:
 RMSU=  5.09D-04    CP:  9.96D-01  9.12D-01
 E= -232.754089011495     Delta-E=       -0.000473528670 Rises=F Damp=F
 DIIS: error= 2.74D-03 at cycle   3 NSaved=   3.
 NSaved= 3 IEnMin= 3 EnMin= -232.754089011495     IErMin= 3 ErrMin= 2.74D-03
 ErrMax= 2.74D-03  0.00D+00 EMaxC= 1.00D-01 BMatC= 9.03D-04 BMatP= 1.29D-03
 IDIUse=3 WtCom= 9.73D-01 WtEn= 2.74D-02
 Coeff-Com: -0.134D-01 0.454D+00 0.560D+00
 Coeff-En:   0.000D+00 0.380D+00 0.620D+00
 Coeff:     -0.130D-01 0.452D+00 0.561D+00
 Gap=     0.177 Goal=   None    Shift=    0.000
 RMSDP=2.89D-04 MaxDP=6.79D-03 DE=-4.74D-04 OVMax= 6.99D-03

 Cycle   4  Pass 0  IDiag  1:
 RMSU=  1.63D-04    CP:  9.95D-01  9.90D-01  5.92D-01
 E= -232.754770272813     Delta-E=       -0.000681261317 Rises=F Damp=F
 DIIS: error= 8.09D-04 at cycle   4 NSaved=   4.
 NSaved= 4 IEnMin= 4 EnMin= -232.754770272813     IErMin= 4 ErrMin= 8.09D-04
 ErrMax= 8.09D-04  0.00D+00 EMaxC= 1.00D-01 BMatC= 9.10D-05 BMatP= 9.03D-04
 IDIUse=3 WtCom= 9.92D-01 WtEn= 8.09D-03
 Coeff-Com: -0.184D-01 0.213D+00 0.328D+00 0.477D+00
 Coeff-En:   0.000D+00 0.000D+00 0.000D+00 0.100D+01
 Coeff:     -0.182D-01 0.212D+00 0.325D+00 0.481D+00
 Gap=     0.175 Goal=   None    Shift=    0.000
 RMSDP=9.08D-05 MaxDP=2.36D-03 DE=-6.81D-04 OVMax= 3.12D-03

 Cycle   5  Pass 0  IDiag  1:
 RMSU=  4.51D-05    CP:  9.95D-01  9.90D-01  6.34D-01  5.34D-01
 E= -232.754837463422     Delta-E=       -0.000067190609 Rises=F Damp=F
 DIIS: error= 1.34D-04 at cycle   5 NSaved=   5.
 NSaved= 5 IEnMin= 5 EnMin= -232.754837463422     IErMin= 5 ErrMin= 1.34D-04
 ErrMax= 1.34D-04  0.00D+00 EMaxC= 1.00D-01 BMatC= 4.20D-06 BMatP= 9.10D-05
 IDIUse=3 WtCom= 9.99D-01 WtEn= 1.34D-03
 Coeff-Com: -0.651D-02 0.519D-01 0.909D-01 0.230D+00 0.633D+00
 Coeff-En:   0.000D+00 0.000D+00 0.000D+00 0.000D+00 0.100D+01
 Coeff:     -0.651D-02 0.518D-01 0.908D-01 0.230D+00 0.634D+00
 Gap=     0.175 Goal=   None    Shift=    0.000
 RMSDP=2.04D-05 MaxDP=3.42D-04 DE=-6.72D-05 OVMax= 4.94D-04

 Cycle   6  Pass 0  IDiag  1:
 RMSU=  1.35D-05    CP:  9.95D-01  9.93D-01  6.32D-01  5.70D-01  7.07D-01
 E= -232.754840877078     Delta-E=       -0.000003413656 Rises=F Damp=F
 DIIS: error= 4.44D-05 at cycle   6 NSaved=   6.
 NSaved= 6 IEnMin= 6 EnMin= -232.754840877078     IErMin= 6 ErrMin= 4.44D-05
 ErrMax= 4.44D-05  0.00D+00 EMaxC= 1.00D-01 BMatC= 1.80D-07 BMatP= 4.20D-06
 IDIUse=1 WtCom= 1.00D+00 WtEn= 0.00D+00
 Coeff-Com: -0.166D-02 0.915D-02 0.180D-01 0.708D-01 0.261D+00 0.643D+00
 Coeff:     -0.166D-02 0.915D-02 0.180D-01 0.708D-01 0.261D+00 0.643D+00
 Gap=     0.175 Goal=   None    Shift=    0.000
 RMSDP=5.74D-06 MaxDP=9.08D-05 DE=-3.41D-06 OVMax= 1.82D-04

 Initial convergence to 1.0D-05 achieved.  Increase integral accuracy.
 Cycle   7  Pass 1  IDiag  1:
 E= -232.754824631744     Delta-E=        0.000016245334 Rises=F Damp=F
 DIIS: error= 1.26D-05 at cycle   1 NSaved=   1.
 NSaved= 1 IEnMin= 1 EnMin= -232.754824631744     IErMin= 1 ErrMin= 1.26D-05
 ErrMax= 1.26D-05  0.00D+00 EMaxC= 1.00D-01 BMatC= 2.20D-08 BMatP= 2.20D-08
 IDIUse=1 WtCom= 1.00D+00 WtEn= 0.00D+00
 Coeff-Com:  0.100D+01
 Coeff:      0.100D+01
 Gap=     0.175 Goal=   None    Shift=    0.000
 RMSDP=5.74D-06 MaxDP=9.08D-05 DE= 1.62D-05 OVMax= 9.09D-05

 Cycle   8  Pass 1  IDiag  1:
 RMSU=  3.61D-06    CP:  1.00D+00
 E= -232.754824619987     Delta-E=        0.000000011757 Rises=F Damp=F
 DIIS: error= 1.96D-05 at cycle   2 NSaved=   2.
 NSaved= 2 IEnMin= 1 EnMin= -232.754824631744     IErMin= 1 ErrMin= 1.26D-05
 ErrMax= 1.96D-05  0.00D+00 EMaxC= 1.00D-01 BMatC= 3.76D-08 BMatP= 2.20D-08
 IDIUse=1 WtCom= 1.00D+00 WtEn= 0.00D+00
 Coeff-Com:  0.569D+00 0.431D+00
 Coeff:      0.569D+00 0.431D+00
 Gap=     0.175 Goal=   None    Shift=    0.000
 RMSDP=1.88D-06 MaxDP=4.00D-05 DE= 1.18D-08 OVMax= 6.27D-05

 Cycle   9  Pass 1  IDiag  1:
 RMSU=  9.38D-07    CP:  1.00D+00  5.53D-01
 E= -232.754824655917     Delta-E=       -0.000000035930 Rises=F Damp=F
 DIIS: error= 3.25D-06 at cycle   3 NSaved=   3.
 NSaved= 3 IEnMin= 3 EnMin= -232.754824655917     IErMin= 3 ErrMin= 3.25D-06
 ErrMax= 3.25D-06  0.00D+00 EMaxC= 1.00D-01 BMatC= 1.31D-09 BMatP= 2.20D-08
 IDIUse=1 WtCom= 1.00D+00 WtEn= 0.00D+00
 Coeff-Com:  0.258D+00 0.234D+00 0.508D+00
 Coeff:      0.258D+00 0.234D+00 0.508D+00
 Gap=     0.175 Goal=   None    Shift=    0.000
 RMSDP=3.89D-07 MaxDP=9.14D-06 DE=-3.59D-08 OVMax= 1.02D-05

 Cycle  10  Pass 1  IDiag  1:
 RMSU=  3.68D-07    CP:  1.00D+00  5.55D-01  8.66D-01
 E= -232.754824656848     Delta-E=       -0.000000000931 Rises=F Damp=F
 DIIS: error= 1.07D-06 at cycle   4 NSaved=   4.
 NSaved= 4 IEnMin= 4 EnMin= -232.754824656848     IErMin= 4 ErrMin= 1.07D-06
 ErrMax= 1.07D-06  0.00D+00 EMaxC= 1.00D-01 BMatC= 1.27D-10 BMatP= 1.31D-09
 IDIUse=1 WtCom= 1.00D+00 WtEn= 0.00D+00
 Coeff-Com:  0.103D-01 0.345D-01 0.242D+00 0.714D+00
 Coeff:      0.103D-01 0.345D-01 0.242D+00 0.714D+00
 Gap=     0.175 Goal=   None    Shift=    0.000
 RMSDP=1.69D-07 MaxDP=3.08D-06 DE=-9.31D-10 OVMax= 8.33D-06

 Cycle  11  Pass 1  IDiag  1:
 RMSU=  1.15D-07    CP:  1.00D+00  5.74D-01  9.66D-01  8.93D-01
 E= -232.754824656991     Delta-E=       -0.000000000143 Rises=F Damp=F
 DIIS: error= 3.22D-07 at cycle   5 NSaved=   5.
 NSaved= 5 IEnMin= 5 EnMin= -232.754824656991     IErMin= 5 ErrMin= 3.22D-07
 ErrMax= 3.22D-07  0.00D+00 EMaxC= 1.00D-01 BMatC= 1.44D-11 BMatP= 1.27D-10
 IDIUse=1 WtCom= 1.00D+00 WtEn= 0.00D+00
 Coeff-Com: -0.200D-01-0.550D-02 0.437D-01 0.312D+00 0.669D+00
 Coeff:     -0.200D-01-0.550D-02 0.437D-01 0.312D+00 0.669D+00
 Gap=     0.175 Goal=   None    Shift=    0.000
 RMSDP=5.74D-08 MaxDP=1.09D-06 DE=-1.43D-10 OVMax= 3.29D-06

 Cycle  12  Pass 1  IDiag  1:
 RMSU=  3.76D-08    CP:  1.00D+00  5.78D-01  9.92D-01  9.84D-01  9.98D-01
 E= -232.754824657009     Delta-E=       -0.000000000018 Rises=F Damp=F
 DIIS: error= 9.53D-08 at cycle   6 NSaved=   6.
 NSaved= 6 IEnMin= 6 EnMin= -232.754824657009     IErMin= 6 ErrMin= 9.53D-08
 ErrMax= 9.53D-08  0.00D+00 EMaxC= 1.00D-01 BMatC= 1.17D-12 BMatP= 1.44D-11
 IDIUse=1 WtCom= 1.00D+00 WtEn= 0.00D+00
 Coeff-Com: -0.918D-02-0.588D-02-0.162D-01 0.342D-01 0.247D+00 0.750D+00
 Coeff:     -0.918D-02-0.588D-02-0.162D-01 0.342D-01 0.247D+00 0.750D+00
 Gap=     0.175 Goal=   None    Shift=    0.000
 RMSDP=2.36D-08 MaxDP=5.40D-07 DE=-1.80D-11 OVMax= 1.58D-06

 Cycle  13  Pass 1  IDiag  1:
 RMSU=  1.22D-08    CP:  1.00D+00  5.79D-01  1.00D+00  1.01D+00  1.10D+00
                    CP:  1.05D+00
 E= -232.754824657011     Delta-E=       -0.000000000002 Rises=F Damp=F
 DIIS: error= 2.80D-08 at cycle   7 NSaved=   7.
 NSaved= 7 IEnMin= 7 EnMin= -232.754824657011     IErMin= 7 ErrMin= 2.80D-08
 ErrMax= 2.80D-08  0.00D+00 EMaxC= 1.00D-01 BMatC= 5.09D-14 BMatP= 1.17D-12
 IDIUse=1 WtCom= 1.00D+00 WtEn= 0.00D+00
 Coeff-Com:  0.109D-02 0.108D-04-0.800D-02-0.317D-01-0.421D-01 0.125D+00
 Coeff-Com:  0.956D+00
 Coeff:      0.109D-02 0.108D-04-0.800D-02-0.317D-01-0.421D-01 0.125D+00
 Coeff:      0.956D+00
 Gap=     0.175 Goal=   None    Shift=    0.000
 RMSDP=9.39D-09 MaxDP=2.39D-07 DE=-1.93D-12 OVMax= 6.86D-07

 SCF Done:  E(RB3LYP) =  -232.754824657     A.U. after   13 cycles
            NFock= 13  Conv=0.94D-08     -V/T= 2.0095
 KE= 2.305636757608D+02 PE=-9.068892222934D+02 EE= 2.560403878384D+02
 Leave Link  502 at Mon Oct 14 01:57:37 2019, MaxMem=  1342177280 cpu:              38.3 elap:               1.6
 (Enter /apps/cent7/gaussian/g16-A.03/g16-haswell/g16/l701.exe)
 ... and contract with generalized density number  0.
 Compute integral first derivatives.
 Leave Link  701 at Mon Oct 14 01:57:38 2019, MaxMem=  1342177280 cpu:               2.2 elap:               0.1
 (Enter /apps/cent7/gaussian/g16-A.03/g16-haswell/g16/l702.exe)
 L702 exits ... SP integral derivatives will be done elsewhere.
 Leave Link  702 at Mon Oct 14 01:57:38 2019, MaxMem=  1342177280 cpu:               0.4 elap:               0.0
 (Enter /apps/cent7/gaussian/g16-A.03/g16-haswell/g16/l703.exe)
 Integral derivatives from FoFJK, PRISM(SPDF).
 Compute integral first derivatives, UseDBF=F ICtDFT=           0.
 Calling FoFJK, ICntrl=      2127 FMM=F ISym2X=0 I1Cent= 0 IOpClX= 0 NMat=1 NMatS=1 NMatT=0.
 FoFJK:  IHMeth= 1 ICntrl=    2127 DoSepK=F KAlg= 0 I1Cent=           0 FoldK=F
 IRaf=         0 NMat=       1 IRICut=       1 DoRegI=T DoRafI=F ISym2E= 0 IDoP0=0 IntGTp=1.
 FoFCou: FMM=F IPFlag=           0 FMFlag=      100000 FMFlg1=         800
         NFxFlg=           0 DoJE=F BraDBF=F KetDBF=F FulRan=T
         wScrn=  0.000000 ICntrl=      2127 IOpCl=  0 I1Cent=           0 NGrid=           0
         NMat0=    1 NMatS0=      1 NMatT0=    0 NMatD0=    1 NMtDS0=    0 NMtDT0=    0
 Symmetry not used in FoFCou.
 Leave Link  703 at Mon Oct 14 01:57:38 2019, MaxMem=  1342177280 cpu:               9.2 elap:               0.4
 (Enter /apps/cent7/gaussian/g16-A.03/g16-haswell/g16/l716.exe)
 Dipole        =-5.60274755D-01 7.77893280D-02 5.55971040D-01
 ***** Axes restored to original set *****
 -------------------------------------------------------------------
 Center     Atomic                   Forces (Hartrees/Bohr)
 Number     Number              X              Y              Z
 -------------------------------------------------------------------
      1        6          -0.043690176   -0.038316176    0.002609998
      2        6          -0.010432055    0.017198715    0.014754762
      3        6           0.007632115    0.021284107   -0.010691024
      4        8           0.051226822    0.002363913   -0.001945622
      5        6          -0.015097448    0.000815185   -0.011689069
      6        1           0.005715156   -0.001484048   -0.001934907
      7        1          -0.002481375   -0.003180228   -0.001261738
      8        1           0.001720154   -0.001217385   -0.006224382
      9        1           0.005135980   -0.000108067    0.002518300
     10        1          -0.002983545    0.002299502    0.002480561
     11        1           0.002362143   -0.003426637    0.001383213
     12        1          -0.001963293   -0.000136447    0.003102557
     13        1           0.001970445    0.003379006    0.001349052
     14        1           0.000885077    0.000528561    0.005548300
 -------------------------------------------------------------------
 Cartesian Forces:  Max     0.051226822 RMS     0.013684266
 Leave Link  716 at Mon Oct 14 01:57:38 2019, MaxMem=  1342177280 cpu:               0.4 elap:               0.0
 (Enter /apps/cent7/gaussian/g16-A.03/g16-haswell/g16/l103.exe)

 GradGradGradGradGradGradGradGradGradGradGradGradGradGradGradGradGradGrad
 Berny optimization.
 Using GEDIIS/GDIIS optimizer.
 FormGI is forming the generalized inverse of G from B-inverse, IUseBI=4.
 Internal  Forces:  Max     0.038648246 RMS     0.008071939
 Search for a local minimum.
 Step number   2 out of a maximum of   62
 All quantities printed in internal units (Hartrees-Bohrs-Radians)
 RMS Force = .80719D-02 SwitMx=.10000D-02 MixMth= 1
 Mixed Optimization -- RFO/linear search
 Update second derivatives using D2CorX and points    1    2
 DE= -2.93D-02 DEPred=-2.70D-02 R= 1.09D+00
 TightC=F SS=  1.41D+00  RLast= 3.17D-01 DXNew= 5.0454D-01 9.5002D-01
 Trust test= 1.09D+00 RLast= 3.17D-01 DXMaxT set to 5.05D-01
 ITU=  1  0
 Use linear search instead of GDIIS.
     Eigenvalues ---    0.00237   0.01295   0.01296   0.01461   0.02681
     Eigenvalues ---    0.07035   0.07434   0.08141   0.08624   0.10220
     Eigenvalues ---    0.10673   0.15533   0.16000   0.16000   0.16000
     Eigenvalues ---    0.16000   0.16000   0.16000   0.16000   0.16685
     Eigenvalues ---    0.21550   0.24990   0.25776   0.28560   0.35683
     Eigenvalues ---    0.37230   0.37230   0.37230   0.37230   0.37230
     Eigenvalues ---    0.37230   0.37230   0.37404   0.39531   0.41264
     Eigenvalues ---    0.54475
 RFO step:  Lambda=-7.09500359D-03 EMin= 2.36823426D-03
 Quartic linear search produced a step of  0.54915.
 Iteration  1 RMS(Cart)=  0.08623545 RMS(Int)=  0.00520483
 Iteration  2 RMS(Cart)=  0.00800874 RMS(Int)=  0.00062358
 Iteration  3 RMS(Cart)=  0.00004107 RMS(Int)=  0.00062292
 Iteration  4 RMS(Cart)=  0.00000002 RMS(Int)=  0.00062292
 ITry= 1 IFail=0 DXMaxC= 1.94D-01 DCOld= 1.00D+10 DXMaxT= 5.05D-01 DXLimC= 3.00D+00 Rises=F
 Variable       Old X    -DE/DX   Delta X   Delta X   Delta X     New X
                                 (Linear)    (Quad)   (Total)
    R1        2.82746  -0.01264  -0.04542  -0.01932  -0.06474   2.76272
    R2        2.69209   0.02622   0.07201   0.00501   0.07702   2.76912
    R3        2.55352  -0.03865  -0.08171  -0.06223  -0.14394   2.40958
    R4        2.05715   0.00393   0.01930  -0.00335   0.01595   2.07310
    R5        2.05781   0.00311   0.01966  -0.00708   0.01258   2.07040
    R6        2.06656   0.00653   0.02446   0.00206   0.02652   2.09308
    R7        2.06146   0.00353   0.02166  -0.00736   0.01430   2.07576
    R8        2.06314   0.00233   0.02259  -0.01318   0.00941   2.07254
    R9        2.07585   0.00558   0.02957  -0.00695   0.02262   2.09846
   R10        2.75838   0.01063   0.03079   0.00888   0.03967   2.79805
   R11        2.05784   0.00267   0.01968  -0.00887   0.01081   2.06865
   R12        2.05036   0.00242   0.01557  -0.00575   0.00982   2.06018
   R13        2.05898   0.00263   0.02030  -0.00967   0.01063   2.06961
    A1        2.15376   0.00130   0.03260  -0.02747   0.00461   2.15837
    A2        2.05186   0.00068  -0.02336   0.02876   0.00491   2.05676
    A3        2.07713  -0.00201  -0.00948  -0.00230  -0.01225   2.06488
    A4        1.91387   0.00515   0.00178   0.05215   0.05310   1.96697
    A5        1.92518   0.00053   0.00799   0.00088   0.00778   1.93296
    A6        1.88533  -0.00196  -0.01389  -0.01354  -0.02733   1.85801
    A7        1.93310   0.00037   0.01234   0.01168   0.02232   1.95542
    A8        1.90384  -0.00311  -0.00373  -0.03509  -0.03845   1.86539
    A9        1.90171  -0.00113  -0.00490  -0.01774  -0.02281   1.87890
   A10        1.93928   0.00242   0.01573   0.00879   0.02345   1.96273
   A11        1.95624   0.00080   0.02504  -0.01701   0.00686   1.96310
   A12        1.89622  -0.00290  -0.00791  -0.02691  -0.03478   1.86144
   A13        1.92178   0.00212   0.00612   0.03085   0.03511   1.95689
   A14        1.87508  -0.00189  -0.01952  -0.00404  -0.02341   1.85168
   A15        1.87198  -0.00089  -0.02123   0.00776  -0.01353   1.85845
   A16        1.99454   0.02468   0.04608   0.09890   0.14498   2.13952
   A17        1.93656  -0.00367   0.01424  -0.05186  -0.03841   1.89815
   A18        1.84417  -0.00286  -0.03650   0.01862  -0.01829   1.82587
   A19        1.93796  -0.00316   0.01501  -0.04778  -0.03354   1.90442
   A20        1.91023   0.00286  -0.00022   0.02833   0.02763   1.93785
   A21        1.92389   0.00391   0.00728   0.02525   0.03136   1.95526
   A22        1.90922   0.00281  -0.00077   0.02914   0.02795   1.93717
    D1        0.48703  -0.00279  -0.02008  -0.04766  -0.06868   0.41835
    D2        2.62052   0.00143   0.00139   0.00210   0.00391   2.62443
    D3       -1.58587  -0.00082  -0.00828  -0.02707  -0.03527  -1.62114
    D4       -2.62236  -0.00142  -0.00240  -0.01067  -0.01371  -2.63607
    D5       -0.48887   0.00280   0.01907   0.03909   0.05888  -0.42999
    D6        1.58793   0.00055   0.00941   0.00992   0.01970   1.60762
    D7        0.50739  -0.00196  -0.00890   0.00004  -0.00959   0.49780
    D8        2.66584   0.00319   0.02627   0.03437   0.06131   2.72715
    D9       -1.55185   0.00072   0.01041   0.01641   0.02691  -1.52493
   D10       -2.66684  -0.00330  -0.02683  -0.03692  -0.06450  -2.73134
   D11       -0.50840   0.00185   0.00835  -0.00259   0.00641  -0.50199
   D12        1.55710  -0.00062  -0.00752  -0.02055  -0.02799   1.52911
   D13       -1.58131  -0.00180  -0.00577  -0.11778  -0.12302  -1.70433
   D14        1.59102  -0.00055   0.01111  -0.08195  -0.07137   1.51966
   D15        1.07607   0.00030   0.01586  -0.01114   0.00525   1.08132
   D16       -3.13831   0.00011   0.00180   0.00628   0.00814  -3.13017
   D17       -1.06997   0.00011  -0.01251   0.02684   0.01375  -1.05622
         Item               Value     Threshold  Converged?
 Maximum Force            0.038648     0.000450     NO 
 RMS     Force            0.008072     0.000300     NO 
 Maximum Displacement     0.194164     0.001800     NO 
 RMS     Displacement     0.085966     0.001200     NO 
 Predicted change in Energy=-8.072743D-03
 Lowest energy point so far.  Saving SCF results.
 GradGradGradGradGradGradGradGradGradGradGradGradGradGradGradGradGradGrad

 Leave Link  103 at Mon Oct 14 01:57:38 2019, MaxMem=  1342177280 cpu:               0.9 elap:               0.1
 (Enter /apps/cent7/gaussian/g16-A.03/g16-haswell/g16/l202.exe)
                          Input orientation:                          
 ---------------------------------------------------------------------
 Center     Atomic      Atomic             Coordinates (Angstroms)
 Number     Number       Type             X           Y           Z
 ---------------------------------------------------------------------
      1          6           0        0.527915   -1.087328   -0.729484
      2          6           0        1.294505   -2.330564   -0.665751
      3          6           0        1.132350    0.244906   -0.645402
      4          8           0       -0.743713   -1.173065   -0.767903
      5          6           0       -1.510044   -1.099740   -2.032709
      6          1           0        2.254099   -2.210138   -0.147904
      7          1           0        0.691846   -3.136425   -0.232457
      8          1           0        1.526584   -2.610067   -1.712085
      9          1           0        2.163909    0.262192   -1.022450
     10          1           0        0.509393    1.018133   -1.111114
     11          1           0       -1.212628   -1.936002   -2.673439
     12          1           0       -2.552823   -1.191727   -1.728260
     13          1           0       -1.324346   -0.131141   -2.508919
     14          1           0        1.194827    0.498465    0.433914
 ---------------------------------------------------------------------
                    Distance matrix (angstroms):
                    1          2          3          4          5
     1  C    0.000000
     2  C    1.461969   0.000000
     3  C    1.465353   2.580650   0.000000
     4  O    1.275094   2.346182   2.354838   0.000000
     5  C    2.419055   3.353952   3.273368   1.480666   0.000000
     6  H    2.139777   1.097036   2.744643   3.232150   4.353647
     7  H    2.114877   1.095607   3.434817   2.490445   3.498187
     8  H    2.069197   1.107610   3.073127   2.847930   3.406611
     9  H    2.140913   2.757803   1.098444   3.252541   4.046407
    10  H    2.139849   3.468216   1.096742   2.547433   3.068036
    11  H    2.743847   3.236078   3.790543   2.105474   1.094681
    12  H    3.240278   4.150639   4.100853   2.048295   1.090202
    13  H    2.740722   3.884985   3.106358   2.110421   1.095191
    14  H    2.076778   3.036874   1.110458   2.827776   3.994348
                    6          7          8          9         10
     6  H    0.000000
     7  H    1.818183   0.000000
     8  H    1.770842   1.778522   0.000000
     9  H    2.624000   3.787038   3.021862   0.000000
    10  H    3.793878   4.250374   3.815715   1.821190   0.000000
    11  H    4.297867   3.320606   2.980242   4.354173   3.759405
    12  H    5.161510   4.067820   4.318972   4.985941   3.826423
    13  H    4.764649   4.275399   3.861064   3.812115   2.576293
    14  H    2.965991   3.729540   3.791879   1.765203   1.768329
                   11         12         13         14
    11  H    0.000000
    12  H    1.800954   0.000000
    13  H    1.815784   1.800952   0.000000
    14  H    4.623647   4.645065   3.924653   0.000000
 Stoichiometry    C4H9O(1+)
 Framework group  C1[X(C4H9O)]
 Deg. of freedom    36
 Full point group                 C1      NOp   1
 RotChk:  IX=0 Diff= 6.19D-02
 Largest Abelian subgroup         C1      NOp   1
 Largest concise Abelian subgroup C1      NOp   1
                         Standard orientation:                         
 ---------------------------------------------------------------------
 Center     Atomic      Atomic             Coordinates (Angstroms)
 Number     Number       Type             X           Y           Z
 ---------------------------------------------------------------------
      1          6           0       -0.461222   -0.000082   -0.102236
      2          6           0       -1.188858   -1.251023    0.105244
      3          6           0       -1.050036    1.325890    0.103568
      4          8           0        0.720475   -0.070023   -0.576122
      5          6           0        1.927250   -0.022957    0.280530
      6          1           0       -2.275407   -1.128483    0.016459
      7          1           0       -0.808184   -2.036027   -0.557485
      8          1           0       -0.984619   -1.563560    1.148032
      9          1           0       -1.845955    1.318646    0.860562
     10          1           0       -0.293644    2.093591    0.306914
     11          1           0        1.910340   -0.881174    0.959871
     12          1           0        2.762438   -0.092317   -0.416743
     13          1           0        1.945995    0.928995    0.821711
     14          1           0       -1.537563    1.609540   -0.852977
 ---------------------------------------------------------------------
 Rotational constants (GHZ):           7.2316174           4.0393978           2.9401997
 Leave Link  202 at Mon Oct 14 01:57:38 2019, MaxMem=  1342177280 cpu:               1.2 elap:               0.1
 (Enter /apps/cent7/gaussian/g16-A.03/g16-haswell/g16/l301.exe)
 Standard basis: 6-31G(d) (6D, 7F)
 Ernie: Thresh=  0.10000D-02 Tol=  0.10000D-05 Strict=F.
 There are    93 symmetry adapted cartesian basis functions of A   symmetry.
 There are    93 symmetry adapted basis functions of A   symmetry.
    93 basis functions,   176 primitive gaussians,    93 cartesian basis functions
    20 alpha electrons       20 beta electrons
       nuclear repulsion energy       187.8862251146 Hartrees.
 IExCor=  402 DFT=T Ex+Corr=B3LYP ExCW=0 ScaHFX=  0.200000
 ScaDFX=  0.800000  0.720000  1.000000  0.810000 ScalE2=  1.000000  1.000000
[...]
 ! A17   A(4,5,11)             108.9822         -DE/DX =    0.0                 !
 ! A18   A(4,5,12)             104.2186         -DE/DX =    0.0                 !
 ! A19   A(4,5,13)             108.9845         -DE/DX =    0.0                 !
 ! A20   A(11,5,12)            111.2325         -DE/DX =    0.0                 !
 ! A21   A(11,5,13)            111.8665         -DE/DX =    0.0                 !
 ! A22   A(12,5,13)            111.2332         -DE/DX =    0.0                 !
 ! D1    D(3,1,2,6)             57.4233         -DE/DX =    0.0                 !
 ! D2    D(3,1,2,7)           -180.0096         -DE/DX =    0.0                 !
 ! D3    D(3,1,2,8)            -57.4446         -DE/DX =    0.0                 !
 ! D4    D(4,1,2,6)           -122.5734         -DE/DX =    0.0                 !
 ! D5    D(4,1,2,7)             -0.0062         -DE/DX =    0.0                 !
 ! D6    D(4,1,2,8)            122.5588         -DE/DX =    0.0                 !
 ! D7    D(2,1,3,9)              0.025          -DE/DX =    0.0                 !
 ! D8    D(2,1,3,10)           121.3242         -DE/DX =    0.0                 !
 ! D9    D(2,1,3,14)          -121.2603         -DE/DX =    0.0                 !
 ! D10   D(4,1,3,9)            180.0214         -DE/DX =    0.0                 !
 ! D11   D(4,1,3,10)           -58.6794         -DE/DX =    0.0                 !
 ! D12   D(4,1,3,14)            58.7361         -DE/DX =    0.0                 !
 ! D13   D(2,1,4,5)            180.0006         -DE/DX =    0.0                 !
 ! D14   D(3,1,4,5)              0.004          -DE/DX =    0.0                 !
 ! D15   D(1,4,5,11)            61.1874         -DE/DX =    0.0                 !
 ! D16   D(1,4,5,12)           180.0193         -DE/DX =    0.0                 !
 ! D17   D(1,4,5,13)           -61.1468         -DE/DX =    0.0                 !
 --------------------------------------------------------------------------------
 GradGradGradGradGradGradGradGradGradGradGradGradGradGradGradGradGradGrad

 Leave Link  103 at Mon Oct 14 01:58:56 2019, MaxMem=  1342177280 cpu:               0.4 elap:               0.0
 (Enter /apps/cent7/gaussian/g16-A.03/g16-haswell/g16/l9999.exe)

 ----------------------------------------------------------------------

 Electric dipole moment (input orientation):
 (Debye = 10**-18 statcoulomb cm , SI units = C m)
                  (au)            (Debye)         (10**-30 SI)
   Tot        0.529935D+00      0.134696D+01      0.449298D+01
   x          0.160904D+00      0.408977D+00      0.136420D+01
   y          0.499903D+00      0.127063D+01      0.423836D+01
   z         -0.709780D-01     -0.180408D+00     -0.601776D+00

 Dipole polarizability, Alpha (input orientation).
 (esu units = cm**3 , SI units = C**2 m**2 J**-1)
 Alpha(0;0):
               (au)            (10**-24 esu)      (10**-40 SI)
   iso        0.443639D+02      0.657406D+01      0.731462D+01
   aniso      0.195928D+02      0.290336D+01      0.323042D+01
   xx         0.528745D+02      0.783520D+01      0.871783D+01
   yx        -0.265241D+01     -0.393047D+00     -0.437324D+00
   yy         0.439895D+02      0.651857D+01      0.725289D+01
   zx         0.638910D+01      0.946767D+00      0.105342D+01
   zy        -0.327417D+01     -0.485183D+00     -0.539838D+00
   zz         0.362278D+02      0.536841D+01      0.597316D+01

 ----------------------------------------------------------------------

 Dipole orientation:
     6          1.11667716          2.52507804         -1.85728530
     6          3.42183912          2.46002235         -3.43165116
     6          1.22511413          2.52217218          0.94556564
     8         -0.96403735          2.58353153         -3.06427214
     6         -3.45945360          2.65393388         -1.83470530
     1          4.52822115          0.77194926         -2.93768281
     1          2.98413621          2.47193191         -5.44511677
     1          4.62119747          4.08356487         -2.93835043
     1          3.17150814          2.46818704          1.61901273
     1          0.28775806          4.21410146          1.70226638
     1         -3.59774187          4.36685277         -0.69568728
     1         -4.79160048          2.69059711         -3.39832687
     1         -3.69342408          0.95244306         -0.69419955
     1          0.19568709          0.88450901          1.70212106

 Electric dipole moment (dipole orientation):
 (Debye = 10**-18 statcoulomb cm , SI units = C m)
                  (au)            (Debye)         (10**-30 SI)
   Tot        0.529935D+00      0.134696D+01      0.449298D+01
   x          0.000000D+00      0.000000D+00      0.000000D+00
   y          0.000000D+00      0.000000D+00      0.000000D+00
   z          0.529935D+00      0.134696D+01      0.449298D+01

 Dipole polarizability, Alpha (dipole orientation).
 (esu units = cm**3 , SI units = C**2 m**2 J**-1)
 Alpha(0;0):
               (au)            (10**-24 esu)      (10**-40 SI)
   iso        0.443639D+02      0.657406D+01      0.731462D+01
   aniso      0.195928D+02      0.290336D+01      0.323042D+01
   xx         0.560706D+02      0.830880D+01      0.924479D+01
   yx        -0.634540D+00     -0.940292D-01     -0.104622D+00
   yy         0.335636D+02      0.497361D+01      0.553388D+01
   zx        -0.546893D+00     -0.810412D-01     -0.901705D-01
   zy         0.151673D-01      0.224757D-02      0.250076D-02
   zz         0.434576D+02      0.643976D+01      0.716520D+01

 ----------------------------------------------------------------------
 1\1\GINC-BROWN-A298\Freq\RB3LYP\6-31G(d)\C4H9O1(1+)\FINEJ\14-Oct-2019\
 0\\#P Geom=AllCheck Guess=TCheck SCRF=Check GenChk RB3LYP/6-31G(d) Fre
 q\\MOP Plus\\1,1\C,0.5819761723,-1.364001158,-0.9494309648\C,1.4409855
 956,-2.4506170139,-0.4349914064\C,1.0846494477,0.0209860252,-1.1292135
 841\O,-0.6156900302,-1.6950530112,-1.2273795199\C,-1.6218778781,-0.755
 735357,-1.7506188084\H,1.8325886216,-2.1596483908,0.5504308139\H,0.906
 2752544,-3.3985662726,-0.3685565641\H,2.3203308891,-2.5496003349,-1.08
 77028911\H,2.1318865908,0.1031461317,-0.8372619431\H,0.9766842626,0.33
 13046656,-2.1780457371\H,-1.2771388815,-0.3637668735,-2.7086367998\H,-
 2.5158391594,-1.3623908618,-1.8721377386\H,-1.7798048861,0.0386643321,
 -1.0196823739\H,0.4868486313,0.7227773391,-0.5307351224\\Version=ES64L
 -G16RevA.03\State=1-A\HF=-232.7969172\RMSD=3.866e-09\RMSF=3.132e-06\Ze
 roPoint=0.1248213\Thermal=0.1248213\Dipole=0.1609039,0.4999033,-0.0709
 78\DipoleDeriv=1.3774339,-0.080109,0.3441707,0.2050187,1.0262763,-0.11
 49226,0.2763052,-0.1999075,0.4159254,-0.3852411,0.2473139,-0.1517797,0
 .1475921,-0.169842,0.0669399,-0.1280046,0.0966009,-0.1342677,-0.035033
 5,0.0712272,-0.0051947,-0.1260799,-0.4786657,0.0584664,0.0416249,0.117
 0568,-0.0900245,-1.3038051,0.1195912,-0.3631741,-0.13044,-0.4239681,0.
 0191078,-0.3035946,0.0936202,-0.2929304,0.6633591,-0.1631924,0.1656709
 ,-0.2322026,0.2977405,-0.0834719,0.181966,-0.0628982,0.3067376,0.17049
 68,-0.0447651,0.0118982,0.0343402,0.0395993,-0.0355085,-0.0047321,-0.0
 471619,0.1166016,0.0637705,-0.0372499,-0.0100284,-0.018018,0.0648286,0
 .0094862,-0.0146143,0.0037672,0.1219702,0.1506685,-0.061265,0.0502642,
 0.0107306,0.084351,0.0663492,0.0309077,0.0330319,0.0916945,0.0440068,0
 .0056033,-0.0236501,0.0393903,0.1111389,0.0135957,-0.0316618,0.0035998
 ,0.1087402,0.1084683,-0.0376442,-0.0503494,-0.0087043,0.125793,-0.0227
 02,-0.0465899,-0.0286051,0.0616033,-0.0210549,-0.0013684,0.0679947,0.0
 548097,0.0799516,0.029695,0.0229261,0.0283456,0.0490639,0.0728385,0.01
 10031,-0.0192772,-0.0317912,0.0566876,0.00772,-0.0090553,0.0204484,0.1
 212141,0.0486907,-0.0147891,-0.0739703,0.0465858,0.0525595,-0.0166455,
 -0.0568277,-0.0503169,0.0066241,0.0454014,-0.0143555,0.057425,0.008768
 5,0.1335497,0.0018903,0.0413505,-0.007581,0.1170475\Polar=52.8745174,-
 2.6524146,43.9894784,6.3891004,-3.2741739,36.2277995\Quadrupole=3.6067
 753,-0.865016,-2.7417593,-2.1122641,2.73154,-1.3451616\PG=C01 [X(C4H9O
 1)]\NImag=0\\0.74643430,0.05618960,0.59090160,0.13479438,-0.06462145,0
 .30453609,-0.10997649,0.04257608,-0.01649523,0.55125030,0.06198687,-0.
 19060125,0.04272974,0.06492731,0.57951797,-0.02111583,0.03695290,-0.10
 371259,-0.00500618,0.00426358,0.51369951,-0.11181930,-0.03813364,0.002
 91926,0.01141066,0.01276766,-0.00474093,0.60899847,-0.02676895,-0.2007
 9259,0.01812387,-0.00332841,-0.01729564,0.00719813,-0.01184500,0.49102
 857,0.00021914,0.01476010,-0.09459224,-0.00090587,0.01199803,0.0140137
 1,0.02972454,0.00298082,0.52682949,-0.45834316,-0.10941735,-0.09150052
 ,-0.05626907,0.00174321,-0.01949485,-0.02070612,-0.02906279,-0.0065406
 1,0.67409052,-0.08721005,-0.15448650,-0.00437858,0.02745618,0.01537775
 ,0.00637515,-0.04207374,-0.00456551,-0.00563286,0.04537143,0.29311187,
 -0.09678757,-0.01099254,-0.08994015,-0.02561286,-0.00128482,0.00047284
 ,-0.00344320,-0.00175740,0.02381985,0.16453603,-0.03589911,0.14300525,
 -0.05119716,0.01337764,-0.01728508,0.00540874,-0.00430513,-0.00170257,
 -0.00070789,0.00564134,0.00117784,-0.09018768,0.02197643,-0.01233036,0
 .51620425,0.00682585,0.01457085,-0.00235263,-0.00502981,0.00099571,0.0
 0172916,-0.00357226,-0.00489209,-0.00208506,0.03551815,-0.11840449,0.0
 2297185,0.12399941,0.53253790,-0.01572232,-0.00040059,-0.00844886,-0.0
 0152949,0.00194671,0.01364234,0.00336711,0.00066758,-0.00831197,-0.015
 55339,0.01892771,-0.07547604,-0.06104955,0.05824711,0.59002159,-0.0140
 2638,-0.00339749,-0.02092016,-0.06850092,-0.02910311,-0.08831301,-0.00
 001303,-0.00062913,0.00247845,-0.00042551,0.00341186,-0.00104623,-0.00
 113848,0.00053219,0.00143791,0.08039470,0.00433398,0.00982231,0.024526
 88,-0.02523769,-0.06867863,-0.05986077,0.00109080,-0.00163403,-0.00254
 830,0.00406221,-0.00191771,0.00101324,0.00045260,-0.00008274,-0.001725
 40,0.02547984,0.06729618,-0.00468764,-0.00248013,-0.01097982,-0.087380
 96,-0.06158298,-0.25471781,-0.00077000,-0.00008649,0.00239036,0.001614
 32,0.00115453,-0.00053531,-0.00014425,0.00005725,0.00000664,0.09522847
 ,0.06733005,0.27788347,0.01253396,0.02290321,-0.00095477,-0.12346275,-
 0.12607026,0.00804335,-0.00226214,0.00156072,-0.00245896,0.00100904,-0
 .00053154,0.00077531,0.00005411,0.00021971,0.00006360,-0.00525714,-0.0
 0763605,0.00238659,0.12681560,-0.01235090,-0.02371145,0.00135476,-0.11
 893657,-0.26276718,0.01530640,0.00252813,-0.00044038,0.00198904,-0.002
 14772,0.00274184,-0.00157060,0.00052241,-0.00005694,0.00008914,-0.0018
 6136,-0.00387241,0.00045362,0.12968657,0.28245956,0.00743845,0.0118510
 1,-0.00317514,0.00634459,0.01318237,-0.05094347,-0.00268806,0.00169904
 ,0.00354282,0.00115899,-0.00108902,-0.00056410,-0.00000809,-0.00000094
 ,-0.00033784,-0.01294160,-0.02496802,0.00482330,-0.00684887,-0.0176383
 7,0.04829994,-0.02257500,0.00410587,0.00926283,-0.20954612,0.01731049,
 0.13177705,0.00124030,-0.00199196,-0.00207862,0.00069379,0.00347704,-0
 .00006508,-0.00024846,-0.00011599,-0.00145559,0.00914316,-0.00213529,-
 0.00682156,-0.00972082,0.00263836,0.00719640,0.23126825,0.01716879,-0.
 00097400,-0.01975572,0.02070459,-0.05235204,-0.01137433,-0.00063732,0.
 00003441,0.00353020,0.00278244,-0.00166265,0.00151681,-0.00044560,0.00
 058370,0.00121353,0.00565459,-0.00089383,-0.00504957,-0.02126051,0.006
 27389,0.01667307,-0.02359874,0.04933033,-0.01191972,0.00105681,0.00836
 393,0.12911492,-0.01181100,-0.12998808,0.00044223,0.00015535,-0.000534
 26,-0.00271509,0.00138920,-0.00190824,0.00022491,-0.00044791,-0.001550
 87,0.02465410,-0.00405121,-0.01847223,-0.00106847,0.00008629,-0.000860
 61,-0.13835093,0.01377887,0.14496731,-0.00935997,0.00023020,-0.0013776
 6,0.00099293,0.00171066,-0.00014352,-0.31297410,-0.02012544,-0.0740045
 3,0.00118206,-0.00096740,-0.00061420,0.00013717,-0.00022853,0.00023458
 ,0.00025095,-0.00028196,0.00035978,-0.00003598,0.00020862,0.00001282,0
 .00031173,-0.00022183,-0.00000287,0.33258545,-0.03466005,0.00080722,-0
 .01166879,0.00083355,0.00064107,0.00011965,-0.01329142,-0.05185434,-0.
 00304678,-0.00465640,-0.00786500,0.00143872,0.00215809,-0.00117676,0.0
 0081204,-0.00025050,-0.00042657,0.00039548,0.00003912,0.00037705,-0.00
 013698,-0.00001638,-0.00070095,-0.00026218,0.02074470,0.05675310,0.006
 91563,-0.00129898,-0.00255189,0.00006473,0.00038250,0.00003667,-0.0756
 3077,-0.00507764,-0.06936501,0.00026208,0.00253897,0.00350160,-0.00033
 415,0.00010143,-0.00059110,0.00010213,0.00025118,-0.00018711,0.0000533
 8,-0.00008642,-0.00021064,0.00019924,-0.00018850,0.00002629,0.08013397
 ,0.00374932,0.06952380,0.00102432,0.00381658,0.01409337,0.00107195,-0.
 00034175,-0.00135037,-0.04763204,-0.00004150,-0.02677699,-0.00311081,-
 0.00143101,-0.00428934,0.00080817,-0.00178879,0.00276576,-0.00018471,0
 .00013972,0.00020860,0.00011730,0.00002702,0.00005636,-0.00023779,-0.0
 0055000,0.00012834,0.00006748,0.00970426,-0.02924891,0.04785810,0.0031
 7764,-0.01326396,0.03453580,-0.00206014,-0.00341388,-0.00294039,0.0025
 8909,-0.06112226,0.07578471,0.00338416,0.00015973,-0.00374898,-0.00132
 546,0.00120353,0.00142801,-0.00040659,0.00104279,-0.00039283,0.0008365
 5,-0.00083976,-0.00041038,0.00045560,-0.00061430,0.00028023,0.00056427
 ,0.00030941,-0.00313840,-0.00491378,0.06930410,0.00214802,0.00429934,-
 0.00269762,0.00173114,-0.00044213,-0.00046277,-0.02773827,0.07095721,-
 0.28361540,-0.00295961,0.00011244,-0.00024524,-0.00024386,-0.00115576,
 0.00139488,-0.00023007,-0.00028606,-0.00005241,-0.00002020,-0.00002656
 ,-0.00012470,-0.00008635,-0.00030719,0.00011277,0.00013555,0.00099160,
 -0.00586010,0.02892432,-0.07968432,0.30916788,0.00446986,0.00272173,-0
 .00188676,-0.00171648,0.00041331,0.00199191,0.00021405,-0.00021376,-0.
 00185524,-0.00108409,0.01431907,-0.02962745,-0.08601859,-0.03759837,0.
 09169618,0.00031098,-0.00011052,0.00002631,0.00005707,-0.00014634,-0.0
 0004686,-0.00026594,0.00038577,-0.00032961,0.00000013,0.00013889,0.000
 23581,-0.00074629,-0.00053104,0.00018728,0.08946571,-0.00501939,-0.000
 91049,0.00015093,0.00092435,-0.00040229,-0.00127440,0.00001089,0.00134
 153,0.00030282,0.00492482,-0.01481105,0.02157687,-0.03347819,-0.081823
 37,0.08027666,-0.00014887,0.00017798,-0.00003215,-0.00006705,0.0001282
 9,0.00003853,0.00015781,-0.00010791,0.00023178,-0.00000792,-0.00001151
 ,0.00004364,-0.00022912,0.00013508,0.00025090,0.03092231,0.08776661,0.
 00285922,0.00246162,0.00058077,-0.00059883,0.00001131,0.00043238,0.000
 63657,-0.00074232,0.00047208,-0.00479924,0.00540340,-0.00831615,0.0831
 4968,0.08413762,-0.26749188,0.00005119,-0.00008749,-0.00003795,0.00006
 724,-0.00010713,-0.00000500,-0.00004409,0.00009587,-0.00010205,0.00003
 164,-0.00030481,0.00028277,-0.00102986,-0.00018893,0.00017840,-0.08694
 295,-0.09593701,0.28233737,-0.00101277,0.00319594,-0.00118344,-0.00050
 598,-0.00045414,-0.00015461,0.00028110,0.00023513,0.00007784,-0.026723
 57,-0.00660632,-0.00618468,-0.23986856,-0.13461125,-0.02309416,-0.0001
 0614,0.00015632,-0.00001783,0.00001308,-0.00001264,0.00000180,-0.00006
 634,0.00008218,-0.00008288,0.00003869,-0.00017400,-0.00001611,-0.00002
 473,0.00008842,0.00007574,-0.00434807,-0.00538566,-0.00075354,0.264005
 44,0.00325870,-0.00369370,0.00194689,0.00082795,0.00055969,0.00020364,
 -0.00056088,-0.00011477,-0.00017883,0.03259095,0.01000301,0.00715867,-
 0.15198916,-0.15151222,-0.02212304,0.00010535,-0.00019487,0.00002954,-
 0.00004730,0.00004528,-0.00002080,0.00006951,-0.00013224,0.00009442,-0
 .00003934,0.00032877,-0.00003484,0.00018869,-0.00004643,-0.00023121,-0
 .00698106,-0.00371520,-0.00284615,0.14080728,0.15759440,-0.00120032,0.
 00192918,-0.00040506,-0.00045900,-0.00017959,0.00027917,0.00026693,0.0
 0005704,-0.00010269,-0.01552260,-0.00450525,-0.00420680,-0.01895359,-0
 .01695250,-0.05610866,-0.00002408,-0.00001445,0.00000889,0.00001008,-0
 .00001046,0.00002270,-0.00006168,0.00015742,-0.00009293,-0.00004826,-0
 .00007466,0.00023583,-0.00031136,-0.00014963,0.00015482,0.02403025,0.0
 1562867,0.00667469,0.03051086,0.01597778,0.05403929,0.00369292,0.00422
 925,0.00192438,-0.00044466,-0.00065608,-0.00228891,-0.00028291,0.00023
 479,0.00139417,-0.01461953,0.02254082,0.01301969,-0.05501882,0.0189184
 8,0.02023313,-0.00030529,0.00042410,-0.00004333,0.00002362,-0.00012253
 ,0.00013478,0.00021384,-0.00007097,0.00019049,0.00019066,-0.00018247,-
 0.00023685,-0.00013713,-0.00026141,0.00001007,-0.00004548,0.00689764,0
 .00728661,0.00839330,-0.01834875,-0.01838815,0.05926718,-0.00472128,-0
 .00185369,-0.00180338,0.00013323,0.00027221,0.00138982,-0.00008847,0.0
 0137826,-0.00062131,0.01360539,-0.01967029,-0.00532629,0.02354330,-0.1
 9259495,-0.13750002,0.00020611,-0.00015213,-0.00005351,-0.00003507,0.0
 0010504,-0.00012444,-0.00008129,0.00015463,-0.00012945,-0.00002619,0.0
 0013868,-0.00002974,0.00033217,0.00012419,0.00015219,-0.00297894,0.012
 07531,0.00808058,0.00275418,-0.00929545,-0.01203221,-0.03286053,0.2092
 5353,0.00115210,0.00085572,0.00230496,-0.00000884,-0.00028221,-0.00151
 312,-0.00107622,0.00045034,0.00093493,-0.00743811,0.01630409,0.0100773
 0,0.02669831,-0.14396354,-0.18772844,-0.00022242,0.00021488,-0.0000181
 7,-0.00001887,-0.00002848,0.00005177,0.00017716,-0.00005969,0.00008251
 ,-0.00003470,0.00031600,-0.00005852,0.00003702,-0.00062795,-0.00072710
 ,0.00206633,-0.02092643,-0.01440532,0.00098692,-0.00031362,-0.00048515
 ,-0.02262323,0.14811713,0.19105355,0.01015488,-0.00239760,-0.01139060,
 0.00028792,0.00007096,0.00249849,-0.12574705,0.08633495,0.07954883,-0.
 00550588,0.00026722,0.00166993,0.00177319,-0.00306881,-0.00139376,-0.0
 0014218,-0.00073807,0.00004152,0.00011505,-0.00003306,0.00018928,-0.00
 021059,0.00000660,-0.00028540,-0.01338719,0.01961259,0.01749982,0.0011
 2619,-0.00159731,-0.00193375,-0.00029287,0.00049836,0.00008636,-0.0000
 7546,0.00011808,0.00015091,-0.00092769,0.00021739,0.00030453,0.1328316
 8,0.01778918,-0.02581434,-0.01878830,-0.00379062,-0.00185348,0.0019114
 8,0.09121618,-0.15107115,-0.09723260,0.00130148,0.00198900,0.00490359,
 -0.00012768,0.00065186,-0.00185946,0.00040709,-0.00048633,0.00025719,0
 .00040190,-0.00044283,0.00094492,-0.00027504,0.00106096,-0.00037121,-0
 .00155984,0.00267981,0.00278746,-0.00491252,0.00702176,0.00536955,-0.0
 0034105,0.00015703,0.00002345,-0.00007545,0.00017372,0.00016867,-0.000
 74235,0.00006467,-0.00005625,-0.09929130,0.16586933,-0.00409354,0.0056
 2699,0.00071761,0.00074188,0.00106850,-0.00123879,0.07873081,-0.094625
 54,-0.11548168,-0.00104738,-0.00070067,0.00031518,0.00080075,-0.000286
 08,0.00098020,-0.00025467,0.00020547,-0.00011185,-0.00002939,0.0001887
 6,-0.00051903,0.00035123,-0.00023076,-0.00004354,-0.00468260,0.0076714
 0,0.00521741,0.01679306,-0.02074694,-0.01722342,0.00045480,-0.00033082
 ,-0.00060011,-0.00016591,0.00033756,-0.00001409,-0.00061285,-0.0001193
 8,0.00043079,-0.08698617,0.10194151,0.12757132\\-0.00000088,-0.0000036
 0,-0.00000207,-0.00000240,0.00000550,-0.00000142,0.00000231,-0.0000052
 1,-0.00000528,0.00000149,0.00000754,0.00000123,0.00000879,-0.00001001,
 0.00000337,-0.00000100,0.00000049,0.00000069,-0.00000052,-0.00000158,-
 0.00000003,-0.00000010,-0.00000051,-0.00000105,-0.00000004,0.00000170,
 0.00000214,-0.00000199,0.00000091,0.00000115,-0.00000112,0.00000054,-0
 .00000103,-0.00000145,-0.00000010,-0.00000029,-0.00000116,0.00000083,0
 .00000061,-0.00000191,0.00000350,0.00000196\\\@


 "TIGER, TIGER BURNING BRIGHT
 IN THE FOREST OF THE NIGHT.
 WHAT IMMORTAL HAND OR EYE
 CAN FRAME THY FEARFUL SYMMETRYE?"
                     - WILLIAM BLAKE
 Job cpu time:       0 days  0 hours  3 minutes 13.9 seconds.
 Elapsed time:       0 days  0 hours  0 minutes  8.6 seconds.
 File lengths (MBytes):  RWF=     19 Int=      0 D2E=      0 Chk=      2 Scr=      1
 Normal termination of Gaussian 16 at Mon Oct 14 01:58:56 2019.
real 84.32
user 1750.35
sys 25.41
Machine:
brown-a298
brown-a298
brown-a298
brown-a298
brown-a298
brown-a298
brown-a298
brown-a298
brown-a298
brown-a298
brown-a298
brown-a298
brown-a298
brown-a298
brown-a298
brown-a298
brown-a298
brown-a298
brown-a298
brown-a298
brown-a298
brown-a298
brown-a298
brown-a298
