 Entering Gaussian System, Link 0=/apps/cent7/gaussian/g16-A.03/g16-haswell/g16/g16
 Initial command:
 /apps/cent7/gaussian/g16-A.03/g16-haswell/g16/l1.exe "/scratch/brown/finej/gaussian/Gau-251456.inp" -scrdir="/scratch/brown/finej/gaussian/"
 Entering Link 1 = /apps/cent7/gaussian/g16-A.03/g16-haswell/g16/l1.exe PID=    251457.
  
 Copyright (c) 1988,1990,1992,1993,1995,1998,2003,2009,2016,
            Gaussian, Inc.  All Rights Reserved.
  
 This is part of the Gaussian(R) 16 program.  It is based on
 the Gaussian(R) 09 system (copyright 2009, Gaussian, Inc.),
 the Gaussian(R) 03 system (copyright 2003, Gaussian, Inc.),
 the Gaussian(R) 98 system (copyright 1998, Gaussian, Inc.),
 the Gaussian(R) 94 system (copyright 1995, Gaussian, Inc.),
 the Gaussian 92(TM) system (copyright 1992, Gaussian, Inc.),
 the Gaussian 90(TM) system (copyright 1990, Gaussian, Inc.),
 the Gaussian 88(TM) system (copyright 1988, Gaussian, Inc.),
 the Gaussian 86(TM) system (copyright 1986, Carnegie Mellon
 University), and the Gaussian 82(TM) system (copyright 1983,
 Carnegie Mellon University). Gaussian is a federally registered
 trademark of Gaussian, Inc.
  
 This software contains proprietary and confidential information,
 including trade secrets, belonging to Gaussian, Inc.
  
 This software is provided under written license and may be
 used, copied, transmitted, or stored only in accord with that
 written license.
  
 The following legend is applicable only to US Government
 contracts under FAR:
  
                    RESTRICTED RIGHTS LEGEND
  
 Use, reproduction and disclosure by the US Government is
 subject to restrictions as set forth in subparagraphs (a)
 and (c) of the Commercial Computer Software - Restricted
 Rights clause in FAR 52.227-19.
  
 Gaussian, Inc.
 340 Quinnipiac St., Bldg. 40, Wallingford CT 06492
  
  
 ---------------------------------------------------------------
 Warning -- This program may not be used in any manner that
 competes with the business of Gaussian, Inc. or will provide
 assistance to any competitor of Gaussian, Inc.  The licensee
 of this program is prohibited from giving any competitor of
 Gaussian, Inc. access to this program.  By using this program,
 the user acknowledges that Gaussian, Inc. is engaged in the
 business of creating and licensing software in the field of
 computational chemistry and represents and warrants to the
 licensee that it is not a competitor of Gaussian, Inc. and that
 it will not use this program in any manner prohibited above.
 ---------------------------------------------------------------
  

 Cite this work as:
 Gaussian 16, Revision A.03,
 M. J. Frisch, G. W. Trucks, H. B. Schlegel, G. E. Scuseria, 
 M. A. Robb, J. R. Cheeseman, G. Scalmani, V. Barone, 
 G. A. Petersson, H. Nakatsuji, X. Li, M. Caricato, A. V. Marenich, 
 J. Bloino, B. G. Janesko, R. Gomperts, B. Mennucci, H. P. Hratchian, 
 J. V. Ortiz, A. F. Izmaylov, J. L. Sonnenberg, D. Williams-Young, 
 F. Ding, F. Lipparini, F. Egidi, J. Goings, B. Peng, A. Petrone, 
 T. Henderson, D. Ranasinghe, V. G. Zakrzewski, J. Gao, N. Rega, 
 G. Zheng, W. Liang, M. Hada, M. Ehara, K. Toyota, R. Fukuda, 
 J. Hasegawa, M. Ishida, T. Nakajima, Y. Honda, O. Kitao, H. Nakai, 
 T. Vreven, K. Throssell, J. A. Montgomery, Jr., J. E. Peralta, 
 F. Ogliaro, M. J. Bearpark, J. J. Heyd, E. N. Brothers, K. N. Kudin, 
 V. N. Staroverov, T. A. Keith, R. Kobayashi, J. Normand, 
 K. Raghavachari, A. P. Rendell, J. C. Burant, S. S. Iyengar, 
 J. Tomasi, M. Cossi, J. M. Millam, M. Klene, C. Adamo, R. Cammi, 
 J. W. Ochterski, R. L. Martin, K. Morokuma, O. Farkas, 
 J. B. Foresman, and D. J. Fox, Gaussian, Inc., Wallingford CT, 2016.
 
 ******************************************
 Gaussian 16:  ES64L-G16RevA.03 25-Dec-2016
                14-Oct-2019 
 ******************************************
 %nprocshared=24
 Will use up to   24 processors via shared memory.
 %mem=70GB
 %chk=14_p.chk
 --------------------------------------------------------------
 #P opt freq b3lyp/6-31g(d) geom=connectivity temperature=0.001
 --------------------------------------------------------------
 1/18=20,19=15,26=3,38=1,57=2,112=-1000/1,3;
 2/9=110,12=2,17=6,18=5,40=1/2;
 3/5=1,6=6,7=1,11=2,25=1,30=1,71=1,74=-5/1,2,3;
 4//1;
 5/5=2,38=5/2;
 6/7=2,8=2,9=2,10=2,28=1/1;
 7//1,2,3,16;
 1/18=20,19=15,26=3/3(2);
 2/9=110/2;
 99//99;
 2/9=110/2;
 3/5=1,6=6,7=1,11=2,25=1,30=1,71=1,74=-5/1,2,3;
 4/5=5,16=3,69=1/1;
 5/5=2,38=5/2;
 7//1,2,3,16;
 1/18=20,19=15,26=3/3(-5);
 2/9=110/2;
 6/7=2,8=2,9=2,10=2,19=2,28=1/1;
 99/9=1/99;
 Leave Link    1 at Mon Oct 14 13:41:12 2019, MaxMem=  9395240960 cpu:               1.0 elap:               0.0
 (Enter /apps/cent7/gaussian/g16-A.03/g16-haswell/g16/l101.exe)
 ------------------
 ricobenzadole plus
 ------------------
 Symbolic Z-matrix:
 Charge =  1 Multiplicity = 1
 C                    -10.1715  -3.1077    1.7676 
 C                    -9.4082   -0.7301    2.366 
 C                    -9.4442   -2.2165    2.7952 
 S                    -8.5224    0.2992    3.6003 
 C                    -6.8775   -0.3456    3.686 
 O                    -8.4043    1.7464    2.9193 
 C                    -5.956    -0.1472    2.6262 
 C                    -4.6455   -0.6661    2.7064 
 C                    -4.278    -1.3775    3.8604 
 C                    -5.1885   -1.5843    4.8905 
 C                    -6.4976   -1.0829    4.8304 
 N                    -3.1099   -1.9469    4.1982 
 C                    -3.2964   -2.5032    5.4156 
 N                    -4.5559   -2.2865    5.8337 
 N                    -2.4042   -3.2019    6.1586 
 C                    -1.0926   -3.4072    5.8848 
 O                    -0.4205   -4.2031    6.7649 
 O                    -0.5234   -2.9157    4.8804 
 C                     0.9656   -4.5628    6.7526 
 H                    -10.99174  -3.60378   2.243 
 H                    -10.53774  -2.5014    0.96562 
 H                    -9.48955  -3.83615   1.38133 
 H                    -10.42335  -0.39191   2.36376 
 H                    -8.82873  -0.68935   1.46741 
 H                    -10.03062  -2.25393   3.68941 
 H                    -8.42666  -2.54715   2.80848 
 H                    -6.25686   0.40084   1.75785 
 H                    -3.94893  -0.52093   1.90726 
 H                    -7.18911  -1.25398   5.6288 
 H                    -2.26925  -1.95727   3.65673 
 H                    -2.7815   -4.12791   6.14642 
 H                     1.1819   -5.17827   7.60072 
 H                     1.18621  -5.10198   5.85509 
 H                     1.56434  -3.67692   6.79279 
 H                    -7.53983   2.12414   2.74155 
 
 ITRead=  0  0  0  0  0  0  0  0  0  0  0  0  0  0  0  0  0  0  0  0
 ITRead=  0  0  0  0  0  0  0  0  0  0  0  0  0  0  0
 MicOpt= -1 -1 -1 -1 -1 -1 -1 -1 -1 -1 -1 -1 -1 -1 -1 -1 -1 -1 -1 -1
 MicOpt= -1 -1 -1 -1 -1 -1 -1 -1 -1 -1 -1 -1 -1 -1 -1
 NAtoms=     35 NQM=       35 NQMF=       0 NMMI=      0 NMMIF=      0
                NMic=       0 NMicF=      0.
                    Isotopes and Nuclear Properties:
 (Nuclear quadrupole moments (NQMom) in fm**2, nuclear magnetic moments (NMagM)
  in nuclear magnetons)

  Atom         1           2           3           4           5           6           7           8           9          10
 IAtWgt=          12          12          12          32          12          16          12          12          12          12
 AtmWgt=  12.0000000  12.0000000  12.0000000  31.9720718  12.0000000  15.9949146  12.0000000  12.0000000  12.0000000  12.0000000
 NucSpn=           0           0           0           0           0           0           0           0           0           0
 AtZEff=  -0.0000000  -0.0000000  -0.0000000  -0.0000000  -0.0000000  -0.0000000  -0.0000000  -0.0000000  -0.0000000  -0.0000000
 NQMom=    0.0000000   0.0000000   0.0000000   0.0000000   0.0000000   0.0000000   0.0000000   0.0000000   0.0000000   0.0000000
 NMagM=    0.0000000   0.0000000   0.0000000   0.0000000   0.0000000   0.0000000   0.0000000   0.0000000   0.0000000   0.0000000
 AtZNuc=   6.0000000   6.0000000   6.0000000  16.0000000   6.0000000   8.0000000   6.0000000   6.0000000   6.0000000   6.0000000

  Atom        11          12          13          14          15          16          17          18          19          20
 IAtWgt=          12          14          12          14          14          12          16          16          12           1
 AtmWgt=  12.0000000  14.0030740  12.0000000  14.0030740  14.0030740  12.0000000  15.9949146  15.9949146  12.0000000   1.0078250
 NucSpn=           0           2           0           2           2           0           0           0           0           1
 AtZEff=  -0.0000000  -0.0000000  -0.0000000  -0.0000000  -0.0000000  -0.0000000  -0.0000000  -0.0000000  -0.0000000  -0.0000000
 NQMom=    0.0000000   2.0440000   0.0000000   2.0440000   2.0440000   0.0000000   0.0000000   0.0000000   0.0000000   0.0000000
 NMagM=    0.0000000   0.4037610   0.0000000   0.4037610   0.4037610   0.0000000   0.0000000   0.0000000   0.0000000   2.7928460
 AtZNuc=   6.0000000   7.0000000   6.0000000   7.0000000   7.0000000   6.0000000   8.0000000   8.0000000   6.0000000   1.0000000

  Atom        21          22          23          24          25          26          27          28          29          30
 IAtWgt=           1           1           1           1           1           1           1           1           1           1
 AtmWgt=   1.0078250   1.0078250   1.0078250   1.0078250   1.0078250   1.0078250   1.0078250   1.0078250   1.0078250   1.0078250
 NucSpn=           1           1           1           1           1           1           1           1           1           1
 AtZEff=  -0.0000000  -0.0000000  -0.0000000  -0.0000000  -0.0000000  -0.0000000  -0.0000000  -0.0000000  -0.0000000  -0.0000000
 NQMom=    0.0000000   0.0000000   0.0000000   0.0000000   0.0000000   0.0000000   0.0000000   0.0000000   0.0000000   0.0000000
 NMagM=    2.7928460   2.7928460   2.7928460   2.7928460   2.7928460   2.7928460   2.7928460   2.7928460   2.7928460   2.7928460
 AtZNuc=   1.0000000   1.0000000   1.0000000   1.0000000   1.0000000   1.0000000   1.0000000   1.0000000   1.0000000   1.0000000

  Atom        31          32          33          34          35
 IAtWgt=           1           1           1           1           1
 AtmWgt=   1.0078250   1.0078250   1.0078250   1.0078250   1.0078250
 NucSpn=           1           1           1           1           1
 AtZEff=  -0.0000000  -0.0000000  -0.0000000  -0.0000000  -0.0000000
 NQMom=    0.0000000   0.0000000   0.0000000   0.0000000   0.0000000
 NMagM=    2.7928460   2.7928460   2.7928460   2.7928460   2.7928460
 AtZNuc=   1.0000000   1.0000000   1.0000000   1.0000000   1.0000000
 Leave Link  101 at Mon Oct 14 13:41:12 2019, MaxMem=  9395240960 cpu:               8.6 elap:               0.4
 (Enter /apps/cent7/gaussian/g16-A.03/g16-haswell/g16/l103.exe)

 GradGradGradGradGradGradGradGradGradGradGradGradGradGradGradGradGradGrad
 Berny optimization.
 Initialization pass.
                           ----------------------------
                           !    Initial Parameters    !
                           ! (Angstroms and Degrees)  !
 --------------------------                            --------------------------
 ! Name  Definition              Value          Derivative Info.                !
 --------------------------------------------------------------------------------
 ! R1    R(1,3)                  1.5425         estimate D2E/DX2                !
 ! R2    R(1,20)                 1.07           estimate D2E/DX2                !
 ! R3    R(1,21)                 1.07           estimate D2E/DX2                !
 ! R4    R(1,22)                 1.07           estimate D2E/DX2                !
 ! R5    R(2,3)                  1.5475         estimate D2E/DX2                !
 ! R6    R(2,4)                  1.8351         estimate D2E/DX2                !
 ! R7    R(2,23)                 1.07           estimate D2E/DX2                !
 ! R8    R(2,24)                 1.07           estimate D2E/DX2                !
 ! R9    R(3,25)                 1.07           estimate D2E/DX2                !
 ! R10   R(3,26)                 1.07           estimate D2E/DX2                !
 ! R11   R(4,5)                  1.7688         estimate D2E/DX2                !
 ! R12   R(4,6)                  1.6038         estimate D2E/DX2                !
 ! R13   R(5,7)                  1.4183         estimate D2E/DX2                !
 ! R14   R(5,11)                 1.4134         estimate D2E/DX2                !
 ! R15   R(6,35)                 0.96           estimate D2E/DX2                !
 ! R16   R(7,8)                  1.4118         estimate D2E/DX2                !
 ! R17   R(7,27)                 1.07           estimate D2E/DX2                !
 ! R18   R(8,9)                  1.4046         estimate D2E/DX2                !
 ! R19   R(8,28)                 1.07           estimate D2E/DX2                !
 ! R20   R(9,10)                 1.3903         estimate D2E/DX2                !
 ! R21   R(9,12)                 1.3427         estimate D2E/DX2                !
 ! R22   R(10,11)                1.4031         estimate D2E/DX2                !
 ! R23   R(10,14)                1.3353         estimate D2E/DX2                !
 ! R24   R(11,29)                1.07           estimate D2E/DX2                !
 ! R25   R(12,13)                1.3514         estimate D2E/DX2                !
 ! R26   R(12,30)                1.0            estimate D2E/DX2                !
 ! R27   R(13,14)                1.3447         estimate D2E/DX2                !
 ! R28   R(13,15)                1.3551         estimate D2E/DX2                !
 ! R29   R(15,16)                1.3555         estimate D2E/DX2                !
 ! R30   R(15,31)                1.0            estimate D2E/DX2                !
 ! R31   R(16,17)                1.3637         estimate D2E/DX2                !
 ! R32   R(16,18)                1.2547         estimate D2E/DX2                !
 ! R33   R(17,19)                1.4321         estimate D2E/DX2                !
 ! R34   R(19,32)                1.07           estimate D2E/DX2                !
 ! R35   R(19,33)                1.07           estimate D2E/DX2                !
 ! R36   R(19,34)                1.07           estimate D2E/DX2                !
 ! A1    A(3,1,20)             109.4712         estimate D2E/DX2                !
 ! A2    A(3,1,21)             109.4712         estimate D2E/DX2                !
 ! A3    A(3,1,22)             109.4712         estimate D2E/DX2                !
 ! A4    A(20,1,21)            109.4712         estimate D2E/DX2                !
 ! A5    A(20,1,22)            109.4712         estimate D2E/DX2                !
 ! A6    A(21,1,22)            109.4712         estimate D2E/DX2                !
 ! A7    A(3,2,4)              111.3104         estimate D2E/DX2                !
 ! A8    A(3,2,23)             106.3847         estimate D2E/DX2                !
 ! A9    A(3,2,24)             106.3847         estimate D2E/DX2                !
 ! A10   A(4,2,23)             106.3847         estimate D2E/DX2                !
 ! A11   A(4,2,24)             106.3847         estimate D2E/DX2                !
 ! A12   A(23,2,24)            120.0            estimate D2E/DX2                !
 ! A13   A(1,3,2)              112.4051         estimate D2E/DX2                !
 ! A14   A(1,3,25)             106.1486         estimate D2E/DX2                !
 ! A15   A(1,3,26)             106.1486         estimate D2E/DX2                !
 ! A16   A(2,3,25)             106.1486         estimate D2E/DX2                !
 ! A17   A(2,3,26)             106.1486         estimate D2E/DX2                !
 ! A18   A(25,3,26)            120.0            estimate D2E/DX2                !
 ! A19   A(2,4,5)              106.0812         estimate D2E/DX2                !
 ! A20   A(2,4,6)              104.8374         estimate D2E/DX2                !
 ! A21   A(5,4,6)              106.3221         estimate D2E/DX2                !
 ! A22   A(4,5,7)              121.1301         estimate D2E/DX2                !
 ! A23   A(4,5,11)             118.643          estimate D2E/DX2                !
 ! A24   A(7,5,11)             120.2221         estimate D2E/DX2                !
 ! A25   A(4,6,35)             120.0            estimate D2E/DX2                !
 ! A26   A(5,7,8)              120.6128         estimate D2E/DX2                !
 ! A27   A(5,7,27)             119.6936         estimate D2E/DX2                !
 ! A28   A(8,7,27)             119.6936         estimate D2E/DX2                !
 ! A29   A(7,8,9)              118.4054         estimate D2E/DX2                !
 ! A30   A(7,8,28)             120.7973         estimate D2E/DX2                !
 ! A31   A(9,8,28)             120.7973         estimate D2E/DX2                !
 ! A32   A(8,9,10)             120.8459         estimate D2E/DX2                !
 ! A33   A(8,9,12)             130.4749         estimate D2E/DX2                !
 ! A34   A(10,9,12)            108.6788         estimate D2E/DX2                !
 ! A35   A(9,10,11)            121.7442         estimate D2E/DX2                !
 ! A36   A(9,10,14)            106.9378         estimate D2E/DX2                !
 ! A37   A(11,10,14)           131.3154         estimate D2E/DX2                !
 ! A38   A(5,11,10)            118.1562         estimate D2E/DX2                !
 ! A39   A(5,11,29)            120.9219         estimate D2E/DX2                !
 ! A40   A(10,11,29)           120.9219         estimate D2E/DX2                !
 ! A41   A(9,12,13)            106.3287         estimate D2E/DX2                !
 ! A42   A(9,12,30)            126.8357         estimate D2E/DX2                !
 ! A43   A(13,12,30)           126.8357         estimate D2E/DX2                !
 ! A44   A(12,13,14)           110.0613         estimate D2E/DX2                !
 ! A45   A(12,13,15)           127.9751         estimate D2E/DX2                !
 ! A46   A(14,13,15)           121.9595         estimate D2E/DX2                !
 ! A47   A(10,14,13)           107.9915         estimate D2E/DX2                !
 ! A48   A(13,15,16)           127.1872         estimate D2E/DX2                !
 ! A49   A(13,15,31)           102.8481         estimate D2E/DX2                !
 ! A50   A(16,15,31)           102.8481         estimate D2E/DX2                !
 ! A51   A(15,16,17)           115.7796         estimate D2E/DX2                !
 ! A52   A(15,16,18)           122.7726         estimate D2E/DX2                !
 ! A53   A(17,16,18)           121.4425         estimate D2E/DX2                !
 ! A54   A(16,17,19)           128.1754         estimate D2E/DX2                !
 ! A55   A(17,19,32)           109.4712         estimate D2E/DX2                !
 ! A56   A(17,19,33)           109.4712         estimate D2E/DX2                !
 ! A57   A(17,19,34)           109.4712         estimate D2E/DX2                !
 ! A58   A(32,19,33)           109.4712         estimate D2E/DX2                !
 ! A59   A(32,19,34)           109.4712         estimate D2E/DX2                !
 ! A60   A(33,19,34)           109.4712         estimate D2E/DX2                !
 ! D1    D(20,1,3,2)          -121.7999         estimate D2E/DX2                !
 ! D2    D(20,1,3,25)           -6.1689         estimate D2E/DX2                !
 ! D3    D(20,1,3,26)          122.5692         estimate D2E/DX2                !
 ! D4    D(21,1,3,2)            -1.7999         estimate D2E/DX2                !
 ! D5    D(21,1,3,25)          113.8311         estimate D2E/DX2                !
 ! D6    D(21,1,3,26)         -117.4308         estimate D2E/DX2                !
 ! D7    D(22,1,3,2)           118.2001         estimate D2E/DX2                !
 ! D8    D(22,1,3,25)         -126.1689         estimate D2E/DX2                !
 ! D9    D(22,1,3,26)            2.5692         estimate D2E/DX2                !
 ! D10   D(4,2,3,1)           -179.4277         estimate D2E/DX2                !
 ! D11   D(4,2,3,25)            64.9414         estimate D2E/DX2                !
 ! D12   D(4,2,3,26)           -63.7968         estimate D2E/DX2                !
 ! D13   D(23,2,3,1)            65.0854         estimate D2E/DX2                !
 ! D14   D(23,2,3,25)          -50.5455         estimate D2E/DX2                !
 ! D15   D(23,2,3,26)         -179.2837         estimate D2E/DX2                !
 ! D16   D(24,2,3,1)           -63.9409         estimate D2E/DX2                !
 ! D17   D(24,2,3,25)         -179.5718         estimate D2E/DX2                !
 ! D18   D(24,2,3,26)           51.69           estimate D2E/DX2                !
 ! D19   D(3,2,4,5)             60.3677         estimate D2E/DX2                !
 ! D20   D(3,2,4,6)            172.6357         estimate D2E/DX2                !
 ! D21   D(23,2,4,5)           175.8546         estimate D2E/DX2                !
 ! D22   D(23,2,4,6)           -71.8775         estimate D2E/DX2                !
 ! D23   D(24,2,4,5)           -55.1191         estimate D2E/DX2                !
 ! D24   D(24,2,4,6)            57.1488         estimate D2E/DX2                !
 ! D25   D(2,4,5,7)             72.0333         estimate D2E/DX2                !
 ! D26   D(2,4,5,11)          -107.1724         estimate D2E/DX2                !
 ! D27   D(6,4,5,7)            -39.197          estimate D2E/DX2                !
 ! D28   D(6,4,5,11)           141.5974         estimate D2E/DX2                !
 ! D29   D(2,4,6,35)          -118.7603         estimate D2E/DX2                !
 ! D30   D(5,4,6,35)            -6.6641         estimate D2E/DX2                !
 ! D31   D(4,5,7,8)            179.9665         estimate D2E/DX2                !
 ! D32   D(4,5,7,27)            -0.0335         estimate D2E/DX2                !
 ! D33   D(11,5,7,8)            -0.8404         estimate D2E/DX2                !
 ! D34   D(11,5,7,27)          179.1596         estimate D2E/DX2                !
 ! D35   D(4,5,11,10)         -179.7061         estimate D2E/DX2                !
 ! D36   D(4,5,11,29)            0.2939         estimate D2E/DX2                !
 ! D37   D(7,5,11,10)            1.0808         estimate D2E/DX2                !
 ! D38   D(7,5,11,29)         -178.9192         estimate D2E/DX2                !
 ! D39   D(5,7,8,9)             -0.2014         estimate D2E/DX2                !
 ! D40   D(5,7,8,28)           179.7986         estimate D2E/DX2                !
 ! D41   D(27,7,8,9)           179.7986         estimate D2E/DX2                !
 ! D42   D(27,7,8,28)           -0.2014         estimate D2E/DX2                !
 ! D43   D(7,8,9,10)             0.9909         estimate D2E/DX2                !
 ! D44   D(7,8,9,12)          -178.7454         estimate D2E/DX2                !
 ! D45   D(28,8,9,10)         -179.0091         estimate D2E/DX2                !
 ! D46   D(28,8,9,12)            1.2546         estimate D2E/DX2                !
 ! D47   D(8,9,10,11)           -0.7513         estimate D2E/DX2                !
 ! D48   D(8,9,10,14)          179.775          estimate D2E/DX2                !
 ! D49   D(12,9,10,11)         179.037          estimate D2E/DX2                !
 ! D50   D(12,9,10,14)          -0.4367         estimate D2E/DX2                !
 ! D51   D(8,9,12,13)         -179.9489         estimate D2E/DX2                !
 ! D52   D(8,9,12,30)            0.0511         estimate D2E/DX2                !
 ! D53   D(10,9,12,13)           0.29           estimate D2E/DX2                !
 ! D54   D(10,9,12,30)        -179.71           estimate D2E/DX2                !
 ! D55   D(9,10,11,5)           -0.3005         estimate D2E/DX2                !
 ! D56   D(9,10,11,29)         179.6995         estimate D2E/DX2                !
 ! D57   D(14,10,11,5)         179.0291         estimate D2E/DX2                !
 ! D58   D(14,10,11,29)         -0.9709         estimate D2E/DX2                !
 ! D59   D(9,10,14,13)           0.405          estimate D2E/DX2                !
 ! D60   D(11,10,14,13)       -178.9991         estimate D2E/DX2                !
 ! D61   D(9,12,13,14)          -0.0393         estimate D2E/DX2                !
 ! D62   D(9,12,13,15)         179.2272         estimate D2E/DX2                !
 ! D63   D(30,12,13,14)        179.9607         estimate D2E/DX2                !
 ! D64   D(30,12,13,15)         -0.7728         estimate D2E/DX2                !
 ! D65   D(12,13,14,10)         -0.2362         estimate D2E/DX2                !
 ! D66   D(15,13,14,10)       -179.5547         estimate D2E/DX2                !
 ! D67   D(12,13,15,16)          5.5405         estimate D2E/DX2                !
 ! D68   D(12,13,15,31)       -111.8035         estimate D2E/DX2                !
 ! D69   D(14,13,15,16)       -175.2716         estimate D2E/DX2                !
 ! D70   D(14,13,15,31)         67.3844         estimate D2E/DX2                !
 ! D71   D(13,15,16,17)       -177.0136         estimate D2E/DX2                !
 ! D72   D(13,15,16,18)          2.1636         estimate D2E/DX2                !
 ! D73   D(31,15,16,17)        -59.6697         estimate D2E/DX2                !
 ! D74   D(31,15,16,18)        119.5075         estimate D2E/DX2                !
 ! D75   D(15,16,17,19)       -178.1667         estimate D2E/DX2                !
 ! D76   D(18,16,17,19)          2.6442         estimate D2E/DX2                !
 ! D77   D(16,17,19,32)        178.3239         estimate D2E/DX2                !
 ! D78   D(16,17,19,33)        -61.6761         estimate D2E/DX2                !
 ! D79   D(16,17,19,34)         58.3239         estimate D2E/DX2                !
 --------------------------------------------------------------------------------
 Trust Radius=3.00D-01 FncErr=1.00D-07 GrdErr=1.00D-06 EigMax=2.50D+02 EigMin=1.00D-04
 Number of steps in this run=    185 maximum allowed number of steps=    210.
 GradGradGradGradGradGradGradGradGradGradGradGradGradGradGradGradGradGrad

 Leave Link  103 at Mon Oct 14 13:41:12 2019, MaxMem=  9395240960 cpu:               0.3 elap:               0.0
 (Enter /apps/cent7/gaussian/g16-A.03/g16-haswell/g16/l202.exe)
                          Input orientation:                          
 ---------------------------------------------------------------------
 Center     Atomic      Atomic             Coordinates (Angstroms)
 Number     Number       Type             X           Y           Z
 ---------------------------------------------------------------------
      1          6           0      -10.171500   -3.107700    1.767600
      2          6           0       -9.408200   -0.730100    2.366000
      3          6           0       -9.444200   -2.216500    2.795200
      4         16           0       -8.522400    0.299200    3.600300
      5          6           0       -6.877500   -0.345600    3.686000
      6          8           0       -8.404300    1.746400    2.919300
      7          6           0       -5.956000   -0.147200    2.626200
      8          6           0       -4.645500   -0.666100    2.706400
      9          6           0       -4.278000   -1.377500    3.860400
     10          6           0       -5.188500   -1.584300    4.890500
     11          6           0       -6.497600   -1.082900    4.830400
     12          7           0       -3.109900   -1.946900    4.198200
     13          6           0       -3.296400   -2.503200    5.415600
     14          7           0       -4.555900   -2.286500    5.833700
     15          7           0       -2.404200   -3.201900    6.158600
     16          6           0       -1.092600   -3.407200    5.884800
     17          8           0       -0.420500   -4.203100    6.764900
     18          8           0       -0.523400   -2.915700    4.880400
     19          6           0        0.965600   -4.562800    6.752600
     20          1           0      -10.991742   -3.603779    2.243004
     21          1           0      -10.537738   -2.501399    0.965622
     22          1           0       -9.489548   -3.836147    1.381328
     23          1           0      -10.423348   -0.391913    2.363756
     24          1           0       -8.828732   -0.689354    1.467414
     25          1           0      -10.030616   -2.253933    3.689412
     26          1           0       -8.426657   -2.547150    2.808481
     27          1           0       -6.256856    0.400838    1.757845
     28          1           0       -3.948934   -0.520928    1.907262
     29          1           0       -7.189110   -1.253976    5.628803
     30          1           0       -2.269245   -1.957270    3.656728
     31          1           0       -2.781500   -4.127911    6.146419
     32          1           0        1.181903   -5.178267    7.600723
     33          1           0        1.186211   -5.101976    5.855092
     34          1           0        1.564342   -3.676915    6.792795
     35          1           0       -7.539826    2.124142    2.741548
 ---------------------------------------------------------------------
                    Distance matrix (angstroms):
                    1          2          3          4          5
     1  C    0.000000
     2  C    2.567818   0.000000
     3  C    1.542454   1.547544   0.000000
     4  S    4.205388   1.835101   2.797615   0.000000
     5  C    4.707429   2.880049   3.298748   1.768844   0.000000
     6  O    5.292608   2.728921   4.098947   1.603776   2.701002
     7  C    5.222279   3.510721   4.059323   2.781106   1.418344
     8  C    6.113872   4.775278   5.043724   4.094046   2.458487
     9  C    6.488971   5.382500   5.341179   4.570985   2.802255
    10  C    6.074828   4.990854   4.785493   4.040678   2.416179
    11  C    5.194045   3.830056   3.756267   2.742838   1.413360
    12  N    7.557875   6.671292   6.493416   5.890467   4.125690
    13  C    7.806428   7.056773   6.689106   6.201599   4.524492
    14  N    6.981583   6.163776   5.756115   5.235174   3.710732
    15  N    8.923043   8.339642   7.864164   7.498998   5.855136
    16  C    9.973338   9.417963   8.984020   8.611520   6.904577
    17  O   11.011581  10.592016  10.056454   9.794191   8.127286
    18  O   10.139636   9.488874   9.187906   8.715402   6.957485
    19  C   12.288309  11.897377  11.381128  11.117472   9.418229
    20  H    1.070000   3.283407   2.150430   4.813849   5.442881
    21  H    1.070000   2.524760   2.150430   4.341252   5.044330
    22  H    1.070000   3.259406   2.150430   4.791692   4.931352
    23  H    2.791832   1.070000   2.115181   2.370713   3.784641
    24  H    2.782361   1.070000   2.115181   2.370713   2.974491
    25  H    2.107636   2.112081   1.070000   2.966672   3.685632
    26  H    2.107636   2.112081   1.070000   2.955986   2.831386
    27  H    5.256841   3.402917   4.252732   2.921927   2.158738
    28  H    6.740268   5.482497   5.819050   4.945258   3.430910
    29  H    5.219179   3.980539   3.747158   2.881812   2.167194
    30  H    8.205969   7.357758   7.231141   6.648066   4.882044
    31  H    8.650260   8.351637   7.699074   7.683747   6.093993
    32  H   12.931061  12.622948  12.032422  11.839744  10.180064
    33  H   12.234473  11.980342  11.432172  11.336398   9.609969
    34  H   12.779146  12.193314  11.802609  11.302384   9.592421
    35  H    5.936873   3.431990   4.740326   2.243506   2.725856
                    6          7          8          9         10
     6  O    0.000000
     7  C    3.108987   0.000000
     8  C    4.471472   1.411772   0.000000
     9  C    5.260302   2.419209   1.404586   0.000000
    10  C    5.031954   2.789510   2.430686   1.390281   0.000000
    11  C    3.910594   2.455069   2.848749   2.440146   1.403124
    12  N    6.580784   3.716233   2.494791   1.342677   2.220661
    13  C    7.097976   4.517185   3.540448   2.156244   2.167983
    14  N    6.290325   4.101822   3.523312   2.190302   1.335250
    15  N    8.424959   5.867225   4.834397   3.481564   3.460785
    16  C    9.424157   6.700652   5.498996   4.285400   4.592167
    17  O   10.673624   8.013796   6.843421   5.594680   5.753722
    18  O    9.364277   6.500704   5.174813   4.183716   4.851380
    19  C   11.928756   9.188757   7.939802   6.782794   7.086030
    20  H    5.981358   6.119924   7.008529   7.255799   6.690676
    21  H    5.139281   5.412217   6.412261   6.987647   6.697767
    22  H    5.891346   5.257756   5.938840   6.273036   5.990336
    23  H    2.992919   4.481736   5.794489   6.401298   5.933789
    24  H    2.867231   3.144726   4.362918   5.187397   5.076390
    25  H    4.386415   4.708634   5.699737   5.821508   5.033598
    26  H    4.295038   3.449222   4.224443   4.436887   3.968317
    27  H    2.787657   1.070000   2.152808   3.391031   3.859493
    28  H    5.100518   2.164453   1.070000   2.157950   3.401028
    29  H    4.221416   3.429451   3.918672   3.408382   2.157926
    30  H    7.204157   4.234443   2.866502   2.100646   3.191136
    31  H    8.748583   6.189948   5.224210   3.876875   3.720341
    32  H   12.718570  10.050233   8.847185   7.631932   7.800253
    33  H   12.144835   9.272903   7.974967   6.907106   7.344482
    34  H   11.991253   9.293812   8.020335   6.929590   7.321109
    35  H    0.960000   2.771427   4.020424   4.914554   4.888688
                   11         12         13         14         15
    11  C    0.000000
    12  N    3.552842   0.000000
    13  C    3.550689   1.351412   0.000000
    14  N    2.495088   2.209322   1.344659   0.000000
    15  N    4.796895   2.432325   1.355084   2.360790   0.000000
    16  C    5.977303   3.007756   2.427777   3.640471   1.355511
    17  O    7.099935   4.348708   3.602925   4.652099   2.303273
    18  O    6.249218   2.844987   2.854142   4.191149   2.291967
    19  C    8.455999   5.475180   4.918756   6.042589   3.682450
    20  H    5.766000   8.288032   8.396125   7.486547   9.446654
    21  H    5.768133   8.119717   8.499370   7.715358   9.675338
    22  H    5.331812   7.225229   7.510472   6.823922   8.568941
    23  H    4.687567   7.698681   8.035214   7.075091   9.306105
    24  H    4.110806   6.460932   7.034551   6.314461   8.342345
    25  H    3.892990   6.946182   6.956402   5.879757   8.072035
    26  H    3.154908   5.528067   5.754870   4.919618   6.922570
    27  H    3.420531   4.622828   5.529639   5.169877   6.869448
    28  H    3.918704   2.825911   4.082112   4.347708   5.258107
    29  H    1.070000   4.377981   4.093801   2.835821   5.193309
    30  H    4.474485   1.000000   2.108724   3.174333   2.797620
    31  H    4.981305   2.942824   1.854428   2.576254   1.000000
    32  H    9.133537   6.359125   5.655612   6.663863   4.341185
    33  H    8.731776   5.581788   5.200057   6.395248   4.073506
    34  H    8.693378   5.619023   5.186626   6.349054   4.046872
    35  H    3.966694   6.190272   6.824186   6.157839   8.149701
                   16         17         18         19         20
    16  C    0.000000
    17  O    1.363727   0.000000
    18  O    1.254743   2.284585   0.000000
    19  C    2.514891   1.432064   2.904340   0.000000
    20  H   10.549613  11.513378  10.817370  12.815389   0.000000
    21  H   10.687816  11.784987  10.760302  13.040908   1.747303
    22  H    9.538029  10.552968   9.668637  11.776617   1.747303
    23  H   10.418856  11.573771  10.521975  12.898309   3.264006
    24  H    9.313845  10.540784   9.251142  11.784129   3.711337
    25  H    9.275661  10.276780   9.604350  11.646062   2.199532
    26  H    7.999488   9.082619   8.178639  10.384286   2.831235
    27  H    7.629053   8.962695   7.322724  10.087078   6.220248
    28  H    5.684190   7.043073   5.129207   7.997917   7.695312
    29  H    6.470652   7.470082   6.910363   8.871895   5.607603
    30  H    2.907077   4.257035   2.337506   5.180486   8.988412
    31  H    1.854792   2.441822   2.858544   3.820647   9.106011
    32  H    3.354763   2.053594   3.927776   1.070000  13.393349
    33  H    2.840093   2.053594   2.941529   1.070000  12.790399
    34  H    2.820735   2.053594   2.931786   1.070000  13.355193
    35  H    9.057732  10.339544   8.899716  11.538891   6.706217
                   21         22         23         24         25
    21  H    0.000000
    22  H    1.747303   0.000000
    23  H    2.533336   3.701337   0.000000
    24  H    2.540867   3.216581   1.853294   0.000000
    25  H    2.781626   2.850160   2.319206   2.971482   0.000000
    26  H    2.802657   2.197276   2.971464   2.326269   1.853294
    27  H    5.232261   5.342669   4.284301   2.808455   5.002002
    28  H    6.944155   6.478093   6.491769   4.902475   6.570100
    29  H    5.874915   5.477287   4.675893   4.508249   3.582640
    30  H    8.712411   7.800026   8.403065   7.030474   7.767107
    31  H    9.468127   8.233416   9.309353   8.383661   7.880251
    32  H   13.730993  12.424252  13.602090  12.569035  12.229909
    33  H   12.966144  11.644257  13.005997  11.790760  11.773645
    34  H   13.483254  12.308445  13.195163  12.054094  12.087139
    35  H    5.791116   6.416905   3.845512   3.346709   5.125429
                   26         27         28         29         30
    26  H    0.000000
    27  H    3.808216   0.000000
    28  H    4.996776   2.489675   0.000000
    29  H    3.340364   4.311823   4.988583   0.000000
    30  H    6.243492   5.006742   2.818699   5.346847   0.000000
    31  H    6.745994   7.200504   5.687151   5.287197   3.342551
    32  H   11.054989  10.981839   8.968378   9.453168   6.151451
    33  H   10.402701  10.122630   7.933541   9.219778   5.163541
    34  H   10.815322  10.156275   8.014044   9.156879   5.242946
    35  H    4.755199   2.362935   4.537283   4.457682   6.728634
                   31         32         33         34         35
    31  H    0.000000
    32  H    4.350496   0.000000
    33  H    4.095901   1.747303   0.000000
    34  H    4.416735   1.747303   1.747303   0.000000
    35  H    8.562884  12.369533  11.749667  11.530427   0.000000
 Stoichiometry    C12H16N3O3S(1+)
 Framework group  C1[X(C12H16N3O3S)]
 Deg. of freedom    99
 Full point group                 C1      NOp   1
 Largest Abelian subgroup         C1      NOp   1
 Largest concise Abelian subgroup C1      NOp   1
                         Standard orientation:                         
 ---------------------------------------------------------------------
 Center     Atomic      Atomic             Coordinates (Angstroms)
 Number     Number       Type             X           Y           Z
 ---------------------------------------------------------------------
      1          6           0       -4.791193    3.010085    0.944323
      2          6           0       -4.686833    0.540320    0.249298
      3          6           0       -4.082499    1.953881    0.071769
      4         16           0       -3.811446   -0.694382   -0.788395
      5          6           0       -2.127625   -0.684071   -0.246688
      6          8           0       -4.419492   -2.110062   -0.343168
      7          6           0       -1.756458   -1.239499    1.004486
      8          6           0       -0.409065   -1.226026    1.425735
      9          6           0        0.551294   -0.654363    0.574986
     10          6           0        0.182076   -0.096141   -0.643599
     11          6           0       -1.151310   -0.093091   -1.080438
     12          7           0        1.880796   -0.533209    0.718259
     13          6           0        2.326741    0.096128   -0.391418
     14          7           0        1.297918    0.363721   -1.214840
     15          7           0        3.598828    0.451867   -0.693902
     16          6           0        4.720384    0.160015    0.009193
     17          8           0        5.879271    0.690682   -0.475703
     18          8           0        4.706274   -0.539424    1.050810
     19          6           0        7.208527    0.525197    0.030758
     20          1           0       -5.181869    3.785447    0.318955
     21          1           0       -5.592371    2.548518    1.482811
     22          1           0       -4.090959    3.428978    1.636495
     23          1           0       -5.688696    0.591453   -0.122933
     24          1           0       -4.507648    0.261029    1.266544
     25          1           0       -4.270399    2.232436   -0.944106
     26          1           0       -3.077112    1.895255    0.433238
     27          1           0       -2.504597   -1.672744    1.634952
     28          1           0       -0.126240   -1.641332    2.370421
     29          1           0       -1.421505    0.344505   -2.018736
     30          1           0        2.431404   -0.846337    1.492069
     31          1           0        3.565641    1.450563   -0.655116
     32          1           0        7.897364    1.051071   -0.596824
     33          1           0        7.262442    0.915895    1.025418
     34          1           0        7.458958   -0.515022    0.042095
     35          1           0       -3.846730   -2.780447    0.036473
 ---------------------------------------------------------------------
 Rotational constants (GHZ):           0.9161139           0.1177321           0.1124618
 Leave Link  202 at Mon Oct 14 13:41:12 2019, MaxMem=  9395240960 cpu:               0.8 elap:               0.1
 (Enter /apps/cent7/gaussian/g16-A.03/g16-haswell/g16/l301.exe)
 Standard basis: 6-31G(d) (6D, 7F)
 Ernie: Thresh=  0.10000D-02 Tol=  0.10000D-05 Strict=F.
 There are   321 symmetry adapted cartesian basis functions of A   symmetry.
 There are   321 symmetry adapted basis functions of A   symmetry.
   321 basis functions,   620 primitive gaussians,   321 cartesian basis functions
    74 alpha electrons       74 beta electrons
       nuclear repulsion energy      1520.0093969693 Hartrees.
 IExCor=  402 DFT=T Ex+Corr=B3LYP ExCW=0 ScaHFX=  0.200000
 ScaDFX=  0.800000  0.720000  1.000000  0.810000 ScalE2=  1.000000  1.000000
 IRadAn=      5 IRanWt=     -1 IRanGd=            0 ICorTp=0 IEmpDi=  4
 NAtoms=   35 NActive=   35 NUniq=   35 SFac= 1.00D+00 NAtFMM=   60 NAOKFM=F Big=F
 Integral buffers will be    131072 words long.
 Raffenetti 2 integral format.
 Two-electron integral symmetry is turned on.
 Leave Link  301 at Mon Oct 14 13:41:13 2019, MaxMem=  9395240960 cpu:               1.5 elap:               0.1
 (Enter /apps/cent7/gaussian/g16-A.03/g16-haswell/g16/l302.exe)
 NPDir=0 NMtPBC=     1 NCelOv=     1 NCel=       1 NClECP=     1 NCelD=      1
         NCelK=      1 NCelE2=     1 NClLst=     1 CellRange=     0.0.
 One-electron integrals computed using PRISM.
 One-electron integral symmetry used in STVInt
 NBasis=   321 RedAO= T EigKep=  3.82D-04  NBF=   321
 NBsUse=   321 1.00D-06 EigRej= -1.00D+00 NBFU=   321
 Precomputing XC quadrature grid using
 IXCGrd= 4 IRadAn=           5 IRanWt=          -1 IRanGd=           0 AccXCQ= 0.00D+00.
 Generated NRdTot=       0 NPtTot=           0 NUsed=           0 NTot=          32
 NSgBfM=   314   314   314   314   314 MxSgAt=    35 MxSgA2=    35.
 Leave Link  302 at Mon Oct 14 13:41:13 2019, MaxMem=  9395240960 cpu:               6.2 elap:               0.3
 (Enter /apps/cent7/gaussian/g16-A.03/g16-haswell/g16/l303.exe)
 DipDrv:  MaxL=1.
 Leave Link  303 at Mon Oct 14 13:41:13 2019, MaxMem=  9395240960 cpu:               1.0 elap:               0.1
 (Enter /apps/cent7/gaussian/g16-A.03/g16-haswell/g16/l401.exe)
 ExpMin= 1.17D-01 ExpMax= 2.19D+04 ExpMxC= 3.30D+03 IAcc=3 IRadAn=         5 AccDes= 0.00D+00
 Harris functional with IExCor=  402 and IRadAn=       5 diagonalized for initial guess.
 HarFok:  IExCor=  402 AccDes= 0.00D+00 IRadAn=         5 IDoV= 1 UseB2=F ITyADJ=14
 ICtDFT=  3500011 ScaDFX=  1.000000  1.000000  1.000000  1.000000
 FoFCou: FMM=F IPFlag=           0 FMFlag=      100000 FMFlg1=           0
         NFxFlg=           0 DoJE=T BraDBF=F KetDBF=T FulRan=T
         wScrn=  0.000000 ICntrl=       500 IOpCl=  0 I1Cent=   200000004 NGrid=           0
         NMat0=    1 NMatS0=      1 NMatT0=    0 NMatD0=    1 NMtDS0=    0 NMtDT0=    0
 Petite list used in FoFCou.
 Harris En= -1254.76229676045    
 JPrj=0 DoOrth=F DoCkMO=F.
 Leave Link  401 at Mon Oct 14 13:41:14 2019, MaxMem=  9395240960 cpu:              15.0 elap:               0.7
 (Enter /apps/cent7/gaussian/g16-A.03/g16-haswell/g16/l502.exe)
 Integral symmetry usage will be decided dynamically.
 Closed shell SCF:
 Using DIIS extrapolation, IDIIS=  1040.
 NGot=  9395240960 LenX=  9395023561 LenY=  9394920079
 Requested convergence on RMS density matrix=1.00D-08 within 128 cycles.
 Requested convergence on MAX density matrix=1.00D-06.
 Requested convergence on             energy=1.00D-06.
 No special actions if energy rises.
 Fock matrices will be formed incrementally for  20 cycles.
 Integral accuracy reduced to 1.0D-05 until final iterations.

 Cycle   1  Pass 0  IDiag  1:
 FoFJK:  IHMeth= 1 ICntrl=       0 DoSepK=F KAlg= 0 I1Cent=           0 FoldK=F
 IRaf= 700000000 NMat=       1 IRICut=       1 DoRegI=T DoRafI=F ISym2E= 0 IDoP0=0 IntGTp=1.
 FoFCou: FMM=F IPFlag=           0 FMFlag=      100000 FMFlg1=           0
         NFxFlg=           0 DoJE=F BraDBF=F KetDBF=F FulRan=T
         wScrn=  0.000000 ICntrl=         0 IOpCl=  0 I1Cent=           0 NGrid=           0
         NMat0=    1 NMatS0=      1 NMatT0=    0 NMatD0=    1 NMtDS0=    0 NMtDT0=    0
 Symmetry not used in FoFCou.
 E= -1254.12882375014    
 DIIS: error= 2.44D-02 at cycle   1 NSaved=   1.
 NSaved= 1 IEnMin= 1 EnMin= -1254.12882375014     IErMin= 1 ErrMin= 2.44D-02
 ErrMax= 2.44D-02  0.00D+00 EMaxC= 1.00D-01 BMatC= 6.36D-01 BMatP= 6.36D-01
 IDIUse=3 WtCom= 7.56D-01 WtEn= 2.44D-01
 Coeff-Com:  0.100D+01
 Coeff-En:   0.100D+01
 Coeff:      0.100D+01
 Gap=     0.304 Goal=   None    Shift=    0.000
 GapD=    0.304 DampG=1.000 DampE=0.500 DampFc=0.5000 IDamp=-1.
 Damping current iteration by 5.00D-01
 RMSDP=6.59D-03 MaxDP=3.69D-01              OVMax= 3.14D-01

 Cycle   2  Pass 0  IDiag  1:
 RMSU=  3.28D-03    CP:  9.86D-01
 E= -1254.25708027029     Delta-E=       -0.128256520154 Rises=F Damp=T
 DIIS: error= 1.17D-02 at cycle   2 NSaved=   2.
 NSaved= 2 IEnMin= 2 EnMin= -1254.25708027029     IErMin= 2 ErrMin= 1.17D-02
 ErrMax= 1.17D-02  0.00D+00 EMaxC= 1.00D-01 BMatC= 1.02D-01 BMatP= 6.36D-01
 IDIUse=3 WtCom= 8.83D-01 WtEn= 1.17D-01
 Coeff-Com:  0.229D+00 0.771D+00
 Coeff-En:   0.388D+00 0.612D+00
 Coeff:      0.248D+00 0.752D+00
 Gap=     0.194 Goal=   None    Shift=    0.000
 RMSDP=2.10D-03 MaxDP=9.24D-02 DE=-1.28D-01 OVMax= 2.54D-01

 Cycle   3  Pass 0  IDiag  1:
 RMSU=  1.74D-03    CP:  9.74D-01  6.52D-01
 E= -1254.65842596929     Delta-E=       -0.401345698998 Rises=F Damp=F
 DIIS: error= 1.29D-02 at cycle   3 NSaved=   3.
 NSaved= 3 IEnMin= 3 EnMin= -1254.65842596929     IErMin= 2 ErrMin= 1.17D-02
 ErrMax= 1.29D-02  0.00D+00 EMaxC= 1.00D-01 BMatC= 6.91D-02 BMatP= 1.02D-01
 IDIUse=3 WtCom= 8.71D-01 WtEn= 1.29D-01
 Coeff-Com:  0.836D-01 0.449D+00 0.467D+00
 Coeff-En:   0.000D+00 0.000D+00 0.100D+01
 Coeff:      0.728D-01 0.391D+00 0.536D+00
 Gap=     0.170 Goal=   None    Shift=    0.000
 RMSDP=1.08D-03 MaxDP=6.02D-02 DE=-4.01D-01 OVMax= 1.19D-01

 Cycle   4  Pass 0  IDiag  1:
 RMSU=  7.90D-04    CP:  9.78D-01  7.36D-01  6.14D-01
 E= -1254.70197549773     Delta-E=       -0.043549528439 Rises=F Damp=F
 DIIS: error= 7.19D-03 at cycle   4 NSaved=   4.
 NSaved= 4 IEnMin= 4 EnMin= -1254.70197549773     IErMin= 4 ErrMin= 7.19D-03
 ErrMax= 7.19D-03  0.00D+00 EMaxC= 1.00D-01 BMatC= 2.05D-02 BMatP= 6.91D-02
 IDIUse=3 WtCom= 9.28D-01 WtEn= 7.19D-02
 Coeff-Com:  0.984D-02 0.103D+00 0.355D+00 0.532D+00
 Coeff-En:   0.000D+00 0.000D+00 0.252D+00 0.748D+00
 Coeff:      0.913D-02 0.960D-01 0.348D+00 0.547D+00
 Gap=     0.156 Goal=   None    Shift=    0.000
 RMSDP=4.52D-04 MaxDP=2.70D-02 DE=-4.35D-02 OVMax= 5.03D-02

 Cycle   5  Pass 0  IDiag  1:
 RMSU=  2.45D-04    CP:  9.78D-01  7.26D-01  7.14D-01  5.74D-01
 E= -1254.71727096058     Delta-E=       -0.015295462851 Rises=F Damp=F
 DIIS: error= 1.85D-03 at cycle   5 NSaved=   5.
 NSaved= 5 IEnMin= 5 EnMin= -1254.71727096058     IErMin= 5 ErrMin= 1.85D-03
 ErrMax= 1.85D-03  0.00D+00 EMaxC= 1.00D-01 BMatC= 1.35D-03 BMatP= 2.05D-02
 IDIUse=3 WtCom= 9.82D-01 WtEn= 1.85D-02
 Coeff-Com: -0.191D-02 0.186D-01 0.150D+00 0.313D+00 0.520D+00
 Coeff-En:   0.000D+00 0.000D+00 0.000D+00 0.000D+00 0.100D+01
 Coeff:     -0.188D-02 0.183D-01 0.147D+00 0.308D+00 0.529D+00
 Gap=     0.156 Goal=   None    Shift=    0.000
 RMSDP=1.40D-04 MaxDP=7.43D-03 DE=-1.53D-02 OVMax= 1.30D-02

 Cycle   6  Pass 0  IDiag  1:
 RMSU=  8.04D-05    CP:  9.77D-01  7.18D-01  7.21D-01  6.36D-01  5.96D-01
 E= -1254.71828695415     Delta-E=       -0.001015993574 Rises=F Damp=F
 DIIS: error= 5.82D-04 at cycle   6 NSaved=   6.
 NSaved= 6 IEnMin= 6 EnMin= -1254.71828695415     IErMin= 6 ErrMin= 5.82D-04
 ErrMax= 5.82D-04  0.00D+00 EMaxC= 1.00D-01 BMatC= 1.73D-04 BMatP= 1.35D-03
 IDIUse=3 WtCom= 9.94D-01 WtEn= 5.82D-03
 Coeff-Com: -0.190D-02 0.206D-02 0.533D-01 0.128D+00 0.323D+00 0.496D+00
 Coeff-En:   0.000D+00 0.000D+00 0.000D+00 0.000D+00 0.805D-01 0.919D+00
 Coeff:     -0.189D-02 0.205D-02 0.530D-01 0.127D+00 0.322D+00 0.498D+00
 Gap=     0.157 Goal=   None    Shift=    0.000
 RMSDP=4.54D-05 MaxDP=1.60D-03 DE=-1.02D-03 OVMax= 3.59D-03

 Cycle   7  Pass 0  IDiag  1:
 RMSU=  2.75D-05    CP:  9.77D-01  7.20D-01  7.21D-01  6.40D-01  6.23D-01
                    CP:  5.64D-01
 E= -1254.71842886354     Delta-E=       -0.000141909385 Rises=F Damp=F
 DIIS: error= 1.25D-04 at cycle   7 NSaved=   7.
 NSaved= 7 IEnMin= 7 EnMin= -1254.71842886354     IErMin= 7 ErrMin= 1.25D-04
 ErrMax= 1.25D-04  0.00D+00 EMaxC= 1.00D-01 BMatC= 9.84D-06 BMatP= 1.73D-04
 IDIUse=3 WtCom= 9.99D-01 WtEn= 1.25D-03
 Coeff-Com: -0.823D-03-0.979D-03 0.129D-01 0.343D-01 0.117D+00 0.261D+00
 Coeff-Com:  0.576D+00
 Coeff-En:   0.000D+00 0.000D+00 0.000D+00 0.000D+00 0.000D+00 0.000D+00
 Coeff-En:   0.100D+01
 Coeff:     -0.822D-03-0.978D-03 0.129D-01 0.342D-01 0.117D+00 0.261D+00
 Coeff:      0.577D+00
 Gap=     0.156 Goal=   None    Shift=    0.000
 RMSDP=1.41D-05 MaxDP=6.40D-04 DE=-1.42D-04 OVMax= 1.50D-03

 Cycle   8  Pass 0  IDiag  1:
 RMSU=  8.50D-06    CP:  9.77D-01  7.20D-01  7.22D-01  6.39D-01  6.40D-01
                    CP:  6.24D-01  6.66D-01
 E= -1254.71843691365     Delta-E=       -0.000008050115 Rises=F Damp=F
 DIIS: error= 5.38D-05 at cycle   8 NSaved=   8.
 NSaved= 8 IEnMin= 8 EnMin= -1254.71843691365     IErMin= 8 ErrMin= 5.38D-05
 ErrMax= 5.38D-05  0.00D+00 EMaxC= 1.00D-01 BMatC= 1.66D-06 BMatP= 9.84D-06
 IDIUse=1 WtCom= 1.00D+00 WtEn= 0.00D+00
 Coeff-Com: -0.331D-03-0.793D-03 0.338D-02 0.982D-02 0.453D-01 0.119D+00
 Coeff-Com:  0.358D+00 0.465D+00
 Coeff:     -0.331D-03-0.793D-03 0.338D-02 0.982D-02 0.453D-01 0.119D+00
 Coeff:      0.358D+00 0.465D+00
 Gap=     0.156 Goal=   None    Shift=    0.000
 RMSDP=5.46D-06 MaxDP=2.25D-04 DE=-8.05D-06 OVMax= 6.28D-04

 Initial convergence to 1.0D-05 achieved.  Increase integral accuracy.
 Cycle   9  Pass 1  IDiag  1:
 E= -1254.71846347617     Delta-E=       -0.000026562516 Rises=F Damp=F
 DIIS: error= 3.60D-05 at cycle   1 NSaved=   1.
 NSaved= 1 IEnMin= 1 EnMin= -1254.71846347617     IErMin= 1 ErrMin= 3.60D-05
 ErrMax= 3.60D-05  0.00D+00 EMaxC= 1.00D-01 BMatC= 3.88D-07 BMatP= 3.88D-07
 IDIUse=1 WtCom= 1.00D+00 WtEn= 0.00D+00
 Coeff-Com:  0.100D+01
 Coeff:      0.100D+01
 Gap=     0.156 Goal=   None    Shift=    0.000
 RMSDP=5.46D-06 MaxDP=2.25D-04 DE=-2.66D-05 OVMax= 4.63D-04

 Cycle  10  Pass 1  IDiag  1:
 RMSU=  2.22D-05    CP:  1.00D+00
 E= -1254.71846327958     Delta-E=        0.000000196594 Rises=F Damp=F
 DIIS: error= 3.73D-05 at cycle   2 NSaved=   2.
 NSaved= 2 IEnMin= 1 EnMin= -1254.71846347617     IErMin= 1 ErrMin= 3.60D-05
 ErrMax= 3.73D-05  0.00D+00 EMaxC= 1.00D-01 BMatC= 5.19D-07 BMatP= 3.88D-07
 IDIUse=1 WtCom= 1.00D+00 WtEn= 0.00D+00
 Coeff-Com:  0.547D+00 0.453D+00
 Coeff:      0.547D+00 0.453D+00
 Gap=     0.156 Goal=   None    Shift=    0.000
 RMSDP=3.81D-06 MaxDP=1.45D-04 DE= 1.97D-07 OVMax= 4.55D-04

 Cycle  11  Pass 1  IDiag  1:
 RMSU=  3.78D-06    CP:  1.00D+00  9.77D-01
 E= -1254.71846373323     Delta-E=       -0.000000453656 Rises=F Damp=F
 DIIS: error= 1.80D-05 at cycle   3 NSaved=   3.
 NSaved= 3 IEnMin= 3 EnMin= -1254.71846373323     IErMin= 3 ErrMin= 1.80D-05
 ErrMax= 1.80D-05  0.00D+00 EMaxC= 1.00D-01 BMatC= 1.03D-07 BMatP= 3.88D-07
 IDIUse=1 WtCom= 1.00D+00 WtEn= 0.00D+00
 Coeff-Com:  0.306D-01 0.306D+00 0.664D+00
 Coeff:      0.306D-01 0.306D+00 0.664D+00
 Gap=     0.156 Goal=   None    Shift=    0.000
 RMSDP=1.30D-06 MaxDP=4.64D-05 DE=-4.54D-07 OVMax= 1.65D-04

 Cycle  12  Pass 1  IDiag  1:
 RMSU=  5.13D-07    CP:  1.00D+00  9.93D-01  6.96D-01
 E= -1254.71846383819     Delta-E=       -0.000000104962 Rises=F Damp=F
 DIIS: error= 3.30D-06 at cycle   4 NSaved=   4.
 NSaved= 4 IEnMin= 4 EnMin= -1254.71846383819     IErMin= 4 ErrMin= 3.30D-06
 ErrMax= 3.30D-06  0.00D+00 EMaxC= 1.00D-01 BMatC= 7.79D-09 BMatP= 1.03D-07
 IDIUse=1 WtCom= 1.00D+00 WtEn= 0.00D+00
 Coeff-Com: -0.949D-03 0.173D+00 0.411D+00 0.418D+00
 Coeff:     -0.949D-03 0.173D+00 0.411D+00 0.418D+00
 Gap=     0.156 Goal=   None    Shift=    0.000
 RMSDP=3.14D-07 MaxDP=1.59D-05 DE=-1.05D-07 OVMax= 3.36D-05

 Cycle  13  Pass 1  IDiag  1:
 RMSU=  1.12D-07    CP:  1.00D+00  9.93D-01  7.04D-01  4.33D-01
 E= -1254.71846384561     Delta-E=       -0.000000007417 Rises=F Damp=F
 DIIS: error= 7.03D-07 at cycle   5 NSaved=   5.
 NSaved= 5 IEnMin= 5 EnMin= -1254.71846384561     IErMin= 5 ErrMin= 7.03D-07
 ErrMax= 7.03D-07  0.00D+00 EMaxC= 1.00D-01 BMatC= 3.00D-10 BMatP= 7.79D-09
 IDIUse=1 WtCom= 1.00D+00 WtEn= 0.00D+00
 Coeff-Com: -0.203D-02 0.874D-01 0.211D+00 0.248D+00 0.455D+00
 Coeff:     -0.203D-02 0.874D-01 0.211D+00 0.248D+00 0.455D+00
 Gap=     0.156 Goal=   None    Shift=    0.000
 RMSDP=6.12D-08 MaxDP=3.51D-06 DE=-7.42D-09 OVMax= 5.61D-06

 Cycle  14  Pass 1  IDiag  1:
 RMSU=  3.59D-08    CP:  1.00D+00  9.93D-01  7.06D-01  4.52D-01  5.72D-01
 E= -1254.71846384589     Delta-E=       -0.000000000279 Rises=F Damp=F
 DIIS: error= 1.10D-07 at cycle   6 NSaved=   6.
 NSaved= 6 IEnMin= 6 EnMin= -1254.71846384589     IErMin= 6 ErrMin= 1.10D-07
 ErrMax= 1.10D-07  0.00D+00 EMaxC= 1.00D-01 BMatC= 1.08D-11 BMatP= 3.00D-10
 IDIUse=1 WtCom= 1.00D+00 WtEn= 0.00D+00
 Coeff-Com: -0.100D-02 0.348D-01 0.846D-01 0.104D+00 0.234D+00 0.544D+00
 Coeff:     -0.100D-02 0.348D-01 0.846D-01 0.104D+00 0.234D+00 0.544D+00
 Gap=     0.156 Goal=   None    Shift=    0.000
 RMSDP=1.27D-08 MaxDP=5.29D-07 DE=-2.79D-10 OVMax= 8.95D-07

 Cycle  15  Pass 1  IDiag  1:
 RMSU=  1.08D-08    CP:  1.00D+00  9.93D-01  7.05D-01  4.55D-01  6.02D-01
                    CP:  8.47D-01
 E= -1254.71846384591     Delta-E=       -0.000000000021 Rises=F Damp=F
 DIIS: error= 6.17D-08 at cycle   7 NSaved=   7.
 NSaved= 7 IEnMin= 7 EnMin= -1254.71846384591     IErMin= 7 ErrMin= 6.17D-08
 ErrMax= 6.17D-08  0.00D+00 EMaxC= 1.00D-01 BMatC= 1.72D-12 BMatP= 1.08D-11
 IDIUse=1 WtCom= 1.00D+00 WtEn= 0.00D+00
 Coeff-Com: -0.360D-03 0.106D-01 0.260D-01 0.331D-01 0.871D-01 0.322D+00
 Coeff-Com:  0.522D+00
 Coeff:     -0.360D-03 0.106D-01 0.260D-01 0.331D-01 0.871D-01 0.322D+00
 Coeff:      0.522D+00
 Gap=     0.156 Goal=   None    Shift=    0.000
 RMSDP=4.96D-09 MaxDP=2.76D-07 DE=-2.09D-11 OVMax= 4.94D-07

 SCF Done:  E(RB3LYP) =  -1254.71846385     A.U. after   15 cycles
            NFock= 15  Conv=0.50D-08     -V/T= 2.0070
 KE= 1.246052997607D+03 PE=-5.960334813266D+03 EE= 1.939553954843D+03
 Leave Link  502 at Mon Oct 14 13:41:23 2019, MaxMem=  9395240960 cpu:             222.5 elap:               9.3
 (Enter /apps/cent7/gaussian/g16-A.03/g16-haswell/g16/l601.exe)
 Copying SCF densities to generalized density rwf, IOpCl= 0 IROHF=0.

 **********************************************************************

            Population analysis using the SCF density.

 **********************************************************************

 Orbital symmetries:
       Occupied  (A) (A) (A) (A) (A) (A) (A) (A) (A) (A) (A) (A)
                 (A) (A) (A) (A) (A) (A) (A) (A) (A) (A) (A) (A)
                 (A) (A) (A) (A) (A) (A) (A) (A) (A) (A) (A) (A)
                 (A) (A) (A) (A) (A) (A) (A) (A) (A) (A) (A) (A)
                 (A) (A) (A) (A) (A) (A) (A) (A) (A) (A) (A) (A)
                 (A) (A) (A) (A) (A) (A) (A) (A) (A) (A) (A) (A)
                 (A) (A)
       Virtual   (A) (A) (A) (A) (A) (A) (A) (A) (A) (A) (A) (A)
                 (A) (A) (A) (A) (A) (A) (A) (A) (A) (A) (A) (A)
                 (A) (A) (A) (A) (A) (A) (A) (A) (A) (A) (A) (A)
                 (A) (A) (A) (A) (A) (A) (A) (A) (A) (A) (A) (A)
                 (A) (A) (A) (A) (A) (A) (A) (A) (A) (A) (A) (A)
                 (A) (A) (A) (A) (A) (A) (A) (A) (A) (A) (A) (A)
                 (A) (A) (A) (A) (A) (A) (A) (A) (A) (A) (A) (A)
                 (A) (A) (A) (A) (A) (A) (A) (A) (A) (A) (A) (A)
                 (A) (A) (A) (A) (A) (A) (A) (A) (A) (A) (A) (A)
                 (A) (A) (A) (A) (A) (A) (A) (A) (A) (A) (A) (A)
                 (A) (A) (A) (A) (A) (A) (A) (A) (A) (A) (A) (A)
                 (A) (A) (A) (A) (A) (A) (A) (A) (A) (A) (A) (A)
                 (A) (A) (A) (A) (A) (A) (A) (A) (A) (A) (A) (A)
                 (A) (A) (A) (A) (A) (A) (A) (A) (A) (A) (A) (A)
                 (A) (A) (A) (A) (A) (A) (A) (A) (A) (A) (A) (A)
                 (A) (A) (A) (A) (A) (A) (A) (A) (A) (A) (A) (A)
                 (A) (A) (A) (A) (A) (A) (A) (A) (A) (A) (A) (A)
                 (A) (A) (A) (A) (A) (A) (A) (A) (A) (A) (A) (A)
                 (A) (A) (A) (A) (A) (A) (A) (A) (A) (A) (A) (A)
                 (A) (A) (A) (A) (A) (A) (A) (A) (A) (A) (A) (A)
                 (A) (A) (A) (A) (A) (A) (A)
 The electronic state is 1-A.
 Alpha  occ. eigenvalues --  -89.17639 -19.36701 -19.28981 -19.23502 -14.52324
 Alpha  occ. eigenvalues --  -14.49835 -14.43631 -10.45949 -10.42472 -10.38119
 Alpha  occ. eigenvalues --  -10.37561 -10.36360 -10.35003 -10.35002 -10.34825
 Alpha  occ. eigenvalues --  -10.34224 -10.32793 -10.32685 -10.29135  -8.22601
 Alpha  occ. eigenvalues --   -6.19229  -6.18735  -6.18175  -1.25072  -1.20540
 Alpha  occ. eigenvalues --   -1.17492  -1.11180  -1.07565  -1.02470  -1.01344
 Alpha  occ. eigenvalues --   -0.97535  -0.92349  -0.88625  -0.88365  -0.84167
 Alpha  occ. eigenvalues --   -0.82223  -0.78577  -0.77320  -0.75840  -0.73194
 Alpha  occ. eigenvalues --   -0.72364  -0.71067  -0.68711  -0.66499  -0.65397
 Alpha  occ. eigenvalues --   -0.64767  -0.63489  -0.60817  -0.60274  -0.58921
 Alpha  occ. eigenvalues --   -0.58321  -0.58026  -0.57407  -0.56886  -0.55825
 Alpha  occ. eigenvalues --   -0.55702  -0.54473  -0.53480  -0.52646  -0.51827
 Alpha  occ. eigenvalues --   -0.50450  -0.50037  -0.49448  -0.47926  -0.46969
 Alpha  occ. eigenvalues --   -0.45321  -0.44738  -0.44167  -0.42726  -0.39333
 Alpha  occ. eigenvalues --   -0.38944  -0.38265  -0.37296  -0.35086
 Alpha virt. eigenvalues --   -0.19442  -0.16355  -0.15252  -0.10490  -0.09633
 Alpha virt. eigenvalues --   -0.08450  -0.06804  -0.05695  -0.03860  -0.01607
 Alpha virt. eigenvalues --   -0.00879  -0.00283   0.00410   0.00756   0.01347
 Alpha virt. eigenvalues --    0.02136   0.02359   0.03295   0.03858   0.04172
 Alpha virt. eigenvalues --    0.05657   0.05927   0.08065   0.08646   0.09720
 Alpha virt. eigenvalues --    0.09913   0.10011   0.11206   0.12232   0.12465
 Alpha virt. eigenvalues --    0.13369   0.14945   0.16200   0.18675   0.19304
 Alpha virt. eigenvalues --    0.20352   0.22939   0.23082   0.25204   0.26662
 Alpha virt. eigenvalues --    0.29441   0.30060   0.33278   0.34393   0.35195
 Alpha virt. eigenvalues --    0.36944   0.37921   0.38235   0.39160   0.39653
 Alpha virt. eigenvalues --    0.40964   0.41499   0.42384   0.43306   0.43869
 Alpha virt. eigenvalues --    0.44284   0.44986   0.45821   0.46367   0.47470
 Alpha virt. eigenvalues --    0.47796   0.48182   0.49362   0.50201   0.50762
 Alpha virt. eigenvalues --    0.52182   0.53125   0.53823   0.56487   0.57217
 Alpha virt. eigenvalues --    0.58257   0.60691   0.61252   0.61991   0.62421
 Alpha virt. eigenvalues --    0.63425   0.65499   0.65844   0.68232   0.68802
 Alpha virt. eigenvalues --    0.69585   0.70724   0.71002   0.71421   0.72144
 Alpha virt. eigenvalues --    0.73067   0.73273   0.74089   0.74871   0.76134
 Alpha virt. eigenvalues --    0.76310   0.76523   0.77125   0.77320   0.78198
 Alpha virt. eigenvalues --    0.78779   0.79276   0.79697   0.80461   0.80746
 Alpha virt. eigenvalues --    0.81816   0.82677   0.83271   0.85309   0.85604
 Alpha virt. eigenvalues --    0.87114   0.88235   0.88383   0.88602   0.90965
 Alpha virt. eigenvalues --    0.92344   0.92679   0.95092   0.95787   0.97455
 Alpha virt. eigenvalues --    0.99573   1.00675   1.02546   1.02961   1.05423
 Alpha virt. eigenvalues --    1.07946   1.08540   1.12142   1.13692   1.14897
 Alpha virt. eigenvalues --    1.18269   1.18725   1.20420   1.21640   1.23685
 Alpha virt. eigenvalues --    1.24740   1.27238   1.28639   1.29348   1.31115
 Alpha virt. eigenvalues --    1.31184   1.32941   1.33744   1.34509   1.35739
 Alpha virt. eigenvalues --    1.40416   1.42057   1.42876   1.43773   1.45372
 Alpha virt. eigenvalues --    1.47357   1.53239   1.55382   1.56324   1.58466
 Alpha virt. eigenvalues --    1.60277   1.61823   1.62489   1.64719   1.67814
 Alpha virt. eigenvalues --    1.69320   1.71807   1.72541   1.73557   1.74350
 Alpha virt. eigenvalues --    1.75486   1.76560   1.77387   1.77717   1.79483
 Alpha virt. eigenvalues --    1.82225   1.83830   1.84576   1.86153   1.86801
 Alpha virt. eigenvalues --    1.88264   1.90214   1.90740   1.91952   1.92700
 Alpha virt. eigenvalues --    1.94327   1.94661   1.95446   1.97131   1.99217
 Alpha virt. eigenvalues --    2.02493   2.04801   2.05746   2.05840   2.06615
 Alpha virt. eigenvalues --    2.09701   2.10578   2.11801   2.13636   2.14090
 Alpha virt. eigenvalues --    2.15446   2.16373   2.19293   2.19859   2.22992
 Alpha virt. eigenvalues --    2.23331   2.26427   2.26950   2.28133   2.29136
 Alpha virt. eigenvalues --    2.35636   2.36165   2.38010   2.42213   2.42625
 Alpha virt. eigenvalues --    2.43724   2.45636   2.51567   2.51730   2.52144
 Alpha virt. eigenvalues --    2.52700   2.54873   2.55544   2.56982   2.60112
 Alpha virt. eigenvalues --    2.61229   2.63491   2.71131   2.73697   2.75730
 Alpha virt. eigenvalues --    2.77959   2.80666   2.89035   2.98751   3.11206
 Alpha virt. eigenvalues --    3.13414   3.18846   3.32650   3.66143   3.77470
 Alpha virt. eigenvalues --    3.86117   3.92099   3.95879   3.99048   4.03334
 Alpha virt. eigenvalues --    4.03838   4.04647   4.12795   4.14818   4.16308
 Alpha virt. eigenvalues --    4.21502   4.25970   4.31734   4.35522   4.36243
 Alpha virt. eigenvalues --    4.43478   4.62415
          Condensed to atoms (all electrons):
               1          2          3          4          5          6
     1  C    5.077198  -0.020726   0.328026   0.003126   0.000198  -0.000022
     2  C   -0.020726   5.456732   0.318376   0.178934  -0.019182  -0.028654
     3  C    0.328026   0.318376   5.073646  -0.024954  -0.004068   0.001176
     4  S    0.003126   0.178934  -0.024954  14.716227   0.262275   0.155079
     5  C    0.000198  -0.019182  -0.004068   0.262275   5.265452  -0.023146
     6  O   -0.000022  -0.028654   0.001176   0.155079  -0.023146   8.291883
     7  C   -0.000044  -0.006468  -0.000186  -0.040660   0.432163   0.001178
     8  C   -0.000002  -0.000004  -0.000008   0.003785  -0.030654   0.000302
     9  C    0.000000   0.000012   0.000014   0.000366  -0.036257  -0.000001
    10  C    0.000001  -0.000175  -0.000045   0.001766  -0.002513  -0.000044
    11  C    0.000035  -0.001122  -0.000322  -0.026558   0.460950   0.000348
    12  N    0.000000   0.000000  -0.000000   0.000010  -0.000048  -0.000000
    13  C   -0.000000  -0.000000  -0.000000   0.000003   0.000029  -0.000000
    14  N   -0.000000   0.000001  -0.000001  -0.000115   0.004947   0.000000
    15  N    0.000000  -0.000000  -0.000000  -0.000000   0.000002  -0.000000
    16  C    0.000000  -0.000000  -0.000000   0.000000  -0.000000   0.000000
    17  O    0.000000   0.000000  -0.000000  -0.000000   0.000000   0.000000
    18  O   -0.000000   0.000000  -0.000000  -0.000000  -0.000000   0.000000
    19  C   -0.000000  -0.000000  -0.000000   0.000000  -0.000000   0.000000
    20  H    0.390131   0.001732  -0.030149  -0.000158   0.000001   0.000000
    21  H    0.385203  -0.008419  -0.047288   0.000437  -0.000012  -0.000002
    22  H    0.389551   0.001329  -0.030871  -0.000103  -0.000000   0.000000
    23  H   -0.003084   0.363923  -0.033627  -0.031610   0.002608   0.001142
    24  H   -0.005972   0.347024  -0.031488  -0.023659  -0.007322   0.000642
    25  H   -0.039879  -0.052691   0.393849   0.002764  -0.001116  -0.000025
    26  H   -0.036981  -0.050657   0.390558  -0.006357   0.007376   0.000024
    27  H   -0.000006  -0.001297   0.000078  -0.004262  -0.064002   0.004176
    28  H   -0.000000  -0.000001   0.000000  -0.000163   0.004047   0.000001
    29  H   -0.000003  -0.000188   0.000099   0.001206  -0.058268  -0.000013
    30  H    0.000000  -0.000000  -0.000000  -0.000000   0.000004   0.000000
    31  H    0.000000   0.000000   0.000000  -0.000000  -0.000000  -0.000000
    32  H    0.000000   0.000000  -0.000000  -0.000000   0.000000   0.000000
    33  H    0.000000  -0.000000   0.000000  -0.000000  -0.000000   0.000000
    34  H   -0.000000  -0.000000  -0.000000   0.000000  -0.000000   0.000000
    35  H    0.000001   0.000740  -0.000031  -0.005726  -0.002262   0.240131
               7          8          9         10         11         12
     1  C   -0.000044  -0.000002   0.000000   0.000001   0.000035   0.000000
     2  C   -0.006468  -0.000004   0.000012  -0.000175  -0.001122   0.000000
     3  C   -0.000186  -0.000008   0.000014  -0.000045  -0.000322  -0.000000
     4  S   -0.040660   0.003785   0.000366   0.001766  -0.026558   0.000010
     5  C    0.432163  -0.030654  -0.036257  -0.002513   0.460950  -0.000048
     6  O    0.001178   0.000302  -0.000001  -0.000044   0.000348  -0.000000
     7  C    5.000676   0.511276   0.004344  -0.036243  -0.027132   0.005749
     8  C    0.511276   5.045719   0.435032  -0.033699  -0.044298  -0.092299
     9  C    0.004344   0.435032   4.785060   0.448816  -0.058161   0.242108
    10  C   -0.036243  -0.033699   0.448816   4.577197   0.475988  -0.027141
    11  C   -0.027132  -0.044298  -0.058161   0.475988   5.104681   0.012896
    12  N    0.005749  -0.092299   0.242108  -0.027141   0.012896   7.169492
    13  C    0.000092   0.006230  -0.081866  -0.078979   0.000841   0.319211
    14  N   -0.000177   0.016738  -0.066098   0.375002  -0.074376  -0.141011
    15  N    0.000002  -0.000090   0.001814   0.001567  -0.000216  -0.085872
    16  C   -0.000000  -0.000018   0.000936  -0.000142   0.000001  -0.001758
    17  O    0.000000  -0.000000   0.000002  -0.000000  -0.000000   0.000048
    18  O   -0.000000  -0.000001   0.001041  -0.000038   0.000000  -0.006065
    19  C    0.000000  -0.000000  -0.000000   0.000000   0.000000   0.000002
    20  H    0.000000   0.000000  -0.000000  -0.000000  -0.000001   0.000000
    21  H   -0.000001   0.000000   0.000000  -0.000000  -0.000000  -0.000000
    22  H    0.000003   0.000000  -0.000000  -0.000000   0.000002   0.000000
    23  H    0.000037   0.000001  -0.000000   0.000001  -0.000017   0.000000
    24  H    0.003982  -0.000025  -0.000008   0.000009   0.000070  -0.000000
    25  H    0.000024   0.000000   0.000000   0.000003   0.000180  -0.000000
    26  H    0.000990  -0.000016  -0.000030  -0.000030   0.001207   0.000000
    27  H    0.363649  -0.019172   0.002258   0.000906   0.003250  -0.000107
    28  H   -0.038717   0.353399  -0.027509   0.003991   0.000683  -0.005353
    29  H    0.004081  -0.000140   0.006995  -0.018663   0.350535  -0.000074
    30  H   -0.000074  -0.001324  -0.018353   0.005404  -0.000081   0.288239
    31  H   -0.000000   0.000004   0.000394   0.000124   0.000001   0.003691
    32  H   -0.000000  -0.000000  -0.000000   0.000000   0.000000   0.000000
    33  H    0.000000   0.000000   0.000000  -0.000000   0.000000  -0.000001
    34  H    0.000000   0.000000  -0.000000  -0.000000  -0.000000  -0.000001
    35  H    0.006655  -0.000126  -0.000018  -0.000026   0.000174  -0.000000
              13         14         15         16         17         18
     1  C   -0.000000  -0.000000   0.000000   0.000000   0.000000  -0.000000
     2  C   -0.000000   0.000001  -0.000000  -0.000000   0.000000   0.000000
     3  C   -0.000000  -0.000001  -0.000000  -0.000000  -0.000000  -0.000000
     4  S    0.000003  -0.000115  -0.000000   0.000000  -0.000000  -0.000000
     5  C    0.000029   0.004947   0.000002  -0.000000   0.000000  -0.000000
     6  O   -0.000000   0.000000  -0.000000   0.000000   0.000000   0.000000
     7  C    0.000092  -0.000177   0.000002  -0.000000   0.000000  -0.000000
     8  C    0.006230   0.016738  -0.000090  -0.000018  -0.000000  -0.000001
     9  C   -0.081866  -0.066098   0.001814   0.000936   0.000002   0.001041
    10  C   -0.078979   0.375002   0.001567  -0.000142  -0.000000  -0.000038
    11  C    0.000841  -0.074376  -0.000216   0.000001  -0.000000   0.000000
    12  N    0.319211  -0.141011  -0.085872  -0.001758   0.000048  -0.006065
    13  C    4.416999   0.531251   0.293439  -0.026965   0.001523   0.005590
    14  N    0.531251   6.962912  -0.063926   0.002354  -0.000012   0.000180
    15  N    0.293439  -0.063926   7.056262   0.295432  -0.081915  -0.099953
    16  C   -0.026965   0.002354   0.295432   4.208944   0.314765   0.521553
    17  O    0.001523  -0.000012  -0.081915   0.314765   8.190328  -0.083251
    18  O    0.005590   0.000180  -0.099953   0.521553  -0.083251   8.124105
    19  C   -0.000057   0.000000   0.003807  -0.019628   0.214048   0.005211
    20  H    0.000000   0.000000  -0.000000  -0.000000  -0.000000   0.000000
    21  H    0.000000  -0.000000  -0.000000  -0.000000   0.000000   0.000000
    22  H    0.000000  -0.000000  -0.000000   0.000000   0.000000   0.000000
    23  H    0.000000  -0.000000  -0.000000   0.000000  -0.000000   0.000000
    24  H    0.000000   0.000000  -0.000000  -0.000000   0.000000   0.000000
    25  H    0.000000  -0.000000  -0.000000  -0.000000  -0.000000   0.000000
    26  H    0.000000  -0.000003   0.000000  -0.000000  -0.000000   0.000000
    27  H   -0.000000   0.000002  -0.000000   0.000000  -0.000000   0.000000
    28  H   -0.000147  -0.000242  -0.000001   0.000001  -0.000000  -0.000002
    29  H   -0.000072  -0.001375  -0.000005   0.000000   0.000000  -0.000000
    30  H   -0.019236   0.004753  -0.003184   0.000886   0.000140   0.026365
    31  H   -0.024254  -0.004080   0.290135  -0.021228   0.003713   0.002213
    32  H   -0.000001  -0.000000   0.000022   0.002876  -0.027286   0.000101
    33  H    0.000015   0.000000  -0.000093  -0.002978  -0.031969   0.003575
    34  H    0.000001   0.000000  -0.000122  -0.002886  -0.031558   0.003570
    35  H    0.000000   0.000000  -0.000000  -0.000000   0.000000  -0.000000
              19         20         21         22         23         24
     1  C   -0.000000   0.390131   0.385203   0.389551  -0.003084  -0.005972
     2  C   -0.000000   0.001732  -0.008419   0.001329   0.363923   0.347024
     3  C   -0.000000  -0.030149  -0.047288  -0.030871  -0.033627  -0.031488
     4  S    0.000000  -0.000158   0.000437  -0.000103  -0.031610  -0.023659
     5  C   -0.000000   0.000001  -0.000012  -0.000000   0.002608  -0.007322
     6  O    0.000000   0.000000  -0.000002   0.000000   0.001142   0.000642
     7  C    0.000000   0.000000  -0.000001   0.000003   0.000037   0.003982
     8  C   -0.000000   0.000000   0.000000   0.000000   0.000001  -0.000025
     9  C   -0.000000  -0.000000   0.000000  -0.000000  -0.000000  -0.000008
    10  C    0.000000  -0.000000  -0.000000  -0.000000   0.000001   0.000009
    11  C    0.000000  -0.000001  -0.000000   0.000002  -0.000017   0.000070
    12  N    0.000002   0.000000  -0.000000   0.000000   0.000000  -0.000000
    13  C   -0.000057   0.000000   0.000000   0.000000   0.000000   0.000000
    14  N    0.000000   0.000000  -0.000000  -0.000000  -0.000000   0.000000
    15  N    0.003807  -0.000000  -0.000000  -0.000000  -0.000000  -0.000000
    16  C   -0.019628  -0.000000  -0.000000   0.000000   0.000000  -0.000000
    17  O    0.214048  -0.000000   0.000000   0.000000  -0.000000   0.000000
    18  O    0.005211   0.000000   0.000000   0.000000   0.000000   0.000000
    19  C    4.867641  -0.000000  -0.000000   0.000000   0.000000   0.000000
    20  H   -0.000000   0.502066  -0.024726  -0.025397   0.000600  -0.000085
    21  H   -0.000000  -0.024726   0.534689  -0.025333   0.002099   0.001935
    22  H    0.000000  -0.025397  -0.025333   0.509826  -0.000131   0.000875
    23  H    0.000000   0.000600   0.002099  -0.000131   0.465013  -0.014100
    24  H    0.000000  -0.000085   0.001935   0.000875  -0.014100   0.494598
    25  H    0.000000  -0.009786   0.003909   0.003300  -0.003661   0.005496
    26  H    0.000000   0.003000   0.004017  -0.009757   0.005277  -0.002849
    27  H    0.000000   0.000000  -0.000001   0.000000  -0.000019   0.001774
    28  H    0.000000   0.000000  -0.000000   0.000000  -0.000000   0.000004
    29  H    0.000000  -0.000000   0.000000   0.000000  -0.000004   0.000010
    30  H   -0.000006   0.000000  -0.000000   0.000000  -0.000000  -0.000000
    31  H   -0.000206  -0.000000  -0.000000  -0.000000  -0.000000  -0.000000
    32  H    0.387534   0.000000   0.000000  -0.000000   0.000000  -0.000000
    33  H    0.377110  -0.000000  -0.000000  -0.000000  -0.000000  -0.000000
    34  H    0.379641   0.000000   0.000000   0.000000   0.000000   0.000000
    35  H   -0.000000  -0.000000   0.000000  -0.000000  -0.000162   0.000284
              25         26         27         28         29         30
     1  C   -0.039879  -0.036981  -0.000006  -0.000000  -0.000003   0.000000
     2  C   -0.052691  -0.050657  -0.001297  -0.000001  -0.000188  -0.000000
     3  C    0.393849   0.390558   0.000078   0.000000   0.000099  -0.000000
     4  S    0.002764  -0.006357  -0.004262  -0.000163   0.001206  -0.000000
     5  C   -0.001116   0.007376  -0.064002   0.004047  -0.058268   0.000004
     6  O   -0.000025   0.000024   0.004176   0.000001  -0.000013   0.000000
     7  C    0.000024   0.000990   0.363649  -0.038717   0.004081  -0.000074
     8  C    0.000000  -0.000016  -0.019172   0.353399  -0.000140  -0.001324
     9  C    0.000000  -0.000030   0.002258  -0.027509   0.006995  -0.018353
    10  C    0.000003  -0.000030   0.000906   0.003991  -0.018663   0.005404
    11  C    0.000180   0.001207   0.003250   0.000683   0.350535  -0.000081
    12  N   -0.000000   0.000000  -0.000107  -0.005353  -0.000074   0.288239
    13  C    0.000000   0.000000  -0.000000  -0.000147  -0.000072  -0.019236
    14  N   -0.000000  -0.000003   0.000002  -0.000242  -0.001375   0.004753
    15  N   -0.000000   0.000000  -0.000000  -0.000001  -0.000005  -0.003184
    16  C   -0.000000  -0.000000   0.000000   0.000001   0.000000   0.000886
    17  O   -0.000000  -0.000000  -0.000000  -0.000000   0.000000   0.000140
    18  O    0.000000   0.000000   0.000000  -0.000002  -0.000000   0.026365
    19  C    0.000000   0.000000   0.000000   0.000000   0.000000  -0.000006
    20  H   -0.009786   0.003000   0.000000   0.000000  -0.000000   0.000000
    21  H    0.003909   0.004017  -0.000001  -0.000000   0.000000  -0.000000
    22  H    0.003300  -0.009757   0.000000   0.000000   0.000000   0.000000
    23  H   -0.003661   0.005277  -0.000019  -0.000000  -0.000004  -0.000000
    24  H    0.005496  -0.002849   0.001774   0.000004   0.000010  -0.000000
    25  H    0.527663  -0.018000   0.000001   0.000000   0.000127  -0.000000
    26  H   -0.018000   0.527870   0.000007  -0.000000   0.000041   0.000000
    27  H    0.000001   0.000007   0.556455  -0.004117  -0.000129  -0.000003
    28  H    0.000000  -0.000000  -0.004117   0.532701   0.000015   0.001583
    29  H    0.000127   0.000041  -0.000129   0.000015   0.522899   0.000001
    30  H   -0.000000   0.000000  -0.000003   0.001583   0.000001   0.338010
    31  H   -0.000000  -0.000000   0.000000   0.000000   0.000001  -0.000159
    32  H   -0.000000  -0.000000  -0.000000   0.000000  -0.000000   0.000000
    33  H   -0.000000  -0.000000  -0.000000   0.000000   0.000000  -0.000002
    34  H    0.000000   0.000000  -0.000000   0.000000   0.000000  -0.000003
    35  H    0.000002   0.000000   0.002958   0.000011   0.000009  -0.000000
              31         32         33         34         35
     1  C    0.000000   0.000000   0.000000  -0.000000   0.000001
     2  C    0.000000   0.000000  -0.000000  -0.000000   0.000740
     3  C    0.000000  -0.000000   0.000000  -0.000000  -0.000031
     4  S   -0.000000  -0.000000  -0.000000   0.000000  -0.005726
     5  C   -0.000000   0.000000  -0.000000  -0.000000  -0.002262
     6  O   -0.000000   0.000000   0.000000   0.000000   0.240131
     7  C   -0.000000  -0.000000   0.000000   0.000000   0.006655
     8  C    0.000004  -0.000000   0.000000   0.000000  -0.000126
     9  C    0.000394  -0.000000   0.000000  -0.000000  -0.000018
    10  C    0.000124   0.000000  -0.000000  -0.000000  -0.000026
    11  C    0.000001   0.000000   0.000000  -0.000000   0.000174
    12  N    0.003691   0.000000  -0.000001  -0.000001  -0.000000
    13  C   -0.024254  -0.000001   0.000015   0.000001   0.000000
    14  N   -0.004080  -0.000000   0.000000   0.000000   0.000000
    15  N    0.290135   0.000022  -0.000093  -0.000122  -0.000000
    16  C   -0.021228   0.002876  -0.002978  -0.002886  -0.000000
    17  O    0.003713  -0.027286  -0.031969  -0.031558   0.000000
    18  O    0.002213   0.000101   0.003575   0.003570  -0.000000
    19  C   -0.000206   0.387534   0.377110   0.379641  -0.000000
    20  H   -0.000000   0.000000  -0.000000   0.000000  -0.000000
    21  H   -0.000000   0.000000  -0.000000   0.000000   0.000000
    22  H   -0.000000  -0.000000  -0.000000   0.000000  -0.000000
    23  H   -0.000000   0.000000  -0.000000   0.000000  -0.000162
    24  H   -0.000000  -0.000000  -0.000000   0.000000   0.000284
    25  H   -0.000000  -0.000000  -0.000000   0.000000   0.000002
    26  H   -0.000000  -0.000000  -0.000000   0.000000   0.000000
    27  H    0.000000  -0.000000  -0.000000  -0.000000   0.002958
    28  H    0.000000   0.000000   0.000000   0.000000   0.000011
    29  H    0.000001  -0.000000   0.000000   0.000000   0.000009
    30  H   -0.000159   0.000000  -0.000002  -0.000003  -0.000000
    31  H    0.368285  -0.000027  -0.000027   0.000029   0.000000
    32  H   -0.000027   0.500745  -0.032894  -0.031806   0.000000
    33  H   -0.000027  -0.032894   0.534467  -0.032468   0.000000
    34  H    0.000029  -0.031806  -0.032468   0.524062  -0.000000
    35  H    0.000000   0.000000   0.000000  -0.000000   0.289042
 Mulliken charges:
               1
     1  C   -0.466752
     2  C   -0.479220
     3  C   -0.302783
     4  S    0.838348
     5  C   -0.191198
     6  O   -0.644177
     7  C   -0.185200
     8  C   -0.150612
     9  C    0.359109
    10  C    0.306962
    11  C   -0.179559
    12  N   -0.681715
    13  C    0.656352
    14  N   -0.546724
    15  N   -0.607105
    16  C    0.727858
    17  O   -0.468577
    18  O   -0.504193
    19  C   -0.215096
    20  H    0.192770
    21  H    0.173493
    22  H    0.186707
    23  H    0.245713
    24  H    0.228805
    25  H    0.187839
    26  H    0.184313
[...]
 000451,-0.00000661,0.00000899,0.00003297,0.00001328,0.00001708,-0.0000
 1190,0.00001324,-0.00002018,0.00007175,0.00006336,0.00002425,0.0000572
 5,0.00010759,0.00009912,-0.00004947,-0.00000088,-0.00001597,-0.0000663
 0,-0.00014883,-0.00003588,0.00035862,0.00024161,0.00000074,0.00012355,
 0.00128655,0.00061379,-0.00000646,-0.00148651,-0.00009340,-0.00019110,
 -0.00003329,-0.00013030,0.00294571,0.00082227,0.00048998,-0.00545544,-
 0.00262924,0.01535029,-0.00162587,-0.00034398,-0.00110512,0.01424170,-
 0.02579778,0.05048516,-0.00501603,-0.00009603,-0.01256141,0.00041168,-
 0.00108778,0.00089775,0.00486759,0.00359868,-0.00088966,-0.00014961,-0
 .00076939,0.00002110,-0.00000662,-0.00000532,-0.00000515,0.00000168,-0
 .00000025,-0.00000107,-0.00000121,0.00000254,0.00000050,0.00000010,-0.
 00000440,-0.00000064,-0.00000282,-0.00000592,-0.00000117,-0.00000197,0
 .00000318,0.00000239,0.00000590,0.00000838,-0.00000106,-0.00000469,-0.
 00006735,-0.00001536,0.00000385,0.00005274,-0.00001396,-0.00000355,-0.
 00006836,0.00000579,0.00013696,-0.00037909,-0.00005869,-0.01046912,0.0
 2670583,-0.00000634,0.00000991,-0.00002940,0.00001913,-0.00010696,-0.0
 0002957,-0.00000923,-0.00002301,0.00004407,-0.00042588,0.00037342,-0.0
 0003992,0.00030979,-0.00012037,0.00033594,0.00010497,-0.00026613,0.000
 10916,0.00040085,-0.00015764,0.00000157,-0.00033384,0.00024601,-0.0001
 8973,0.00058805,-0.00005353,0.00042928,-0.00007876,-0.00011152,-0.0007
 5917,-0.00021444,0.00004475,-0.00005371,-0.00074253,0.00039868,0.00165
 815,-0.00128486,0.00324359,-0.01608826,0.00254548,-0.00149747,0.001090
 19,0.07007671,0.05102250,-0.42750645,0.00485606,-0.00151191,-0.0071496
 0,-0.00356161,0.00140510,-0.00042416,-0.00023740,0.00053393,0.00315141
 ,0.00084894,-0.00049321,-0.00006444,0.00000354,0.00001034,0.00000928,0
 .00000693,-0.00000490,0.00000732,-0.00000145,-0.00000221,-0.00000055,0
 .00001518,0.00002333,0.00003616,-0.00000216,0.00001935,-0.00000473,-0.
 00000126,-0.00000149,-0.00000597,0.00000214,-0.00002323,-0.00000634,-0
 .00000317,-0.00001753,-0.00000114,0.00000606,0.00000279,0.00001810,0.0
 0000335,-0.00001108,0.00001728,-0.00000092,-0.00003108,-0.00018209,-0.
 07245338,-0.05310046,0.44547607,0.00000167,-0.00000227,0.00000654,-0.0
 0000127,0.00002230,0.00000639,0.00000033,0.00000564,-0.00000922,0.0000
 8624,-0.00007065,0.00001412,-0.00006665,0.00002879,-0.00004878,-0.0000
 2165,0.00005026,-0.00002333,-0.00004770,0.00001649,-0.00002042,0.00001
 270,-0.00001265,0.00004073,0.00005152,-0.00000365,-0.00008141,-0.00005
 899,-0.00000448,0.00013029,0.00004576,-0.00001697,0.00001420,-0.000050
 32,0.00003691,-0.00008010,0.00021648,-0.00020207,0.00077340,-0.0003056
 9,0.00014476,-0.00014335,-0.00163850,0.00105872,-0.00164571,-0.0040559
 1,0.00062910,0.00526946,-0.02777451,0.01683195,-0.02744878,0.00155610,
 -0.00019938,-0.00102566,-0.08899188,0.03112584,-0.08967345,-0.00000143
 ,-0.00000234,-0.00000188,-0.00000110,0.00000073,-0.00000149,0.00000017
 ,0.00000086,-0.00000033,-0.00000282,-0.00000487,-0.00000705,-0.0000003
 3,-0.00000395,0.00000043,0.00000064,0.00000035,0.00000098,-0.00000001,
 0.00000481,0.00000168,-0.00000358,0.00000228,-0.00000042,-0.00000024,0
 .00000060,-0.00000236,0.00000082,-0.00000091,-0.00000068,0.00001057,-0
 .00001415,0.00002929,0.00002285,0.00003262,-0.00018279,0.11008268,-0.0
 0000067,0.00000097,-0.00000280,0.00000180,-0.00001023,-0.00000232,-0.0
 0000068,-0.00000192,0.00000347,-0.00004074,0.00003901,-0.00000740,0.00
 003297,-0.00001348,0.00002146,0.00000914,-0.00002784,0.00001156,0.0000
 1906,-0.00000692,0.00000979,-0.00000355,0.00000506,-0.00001598,-0.0000
 3014,0.00000969,0.00002800,0.00002134,-0.00000947,-0.00005988,-0.00002
 247,0.00000739,-0.00001003,0.00004099,-0.00002134,0.00003654,-0.000093
 55,0.00018220,-0.00026293,0.00011830,-0.00007871,0.00004578,0.00069288
 ,-0.00023075,0.00056001,0.00097123,-0.00010753,-0.00184131,0.00980923,
 -0.00548829,0.00899491,-0.00009566,0.00056474,0.00034116,0.03367499,-0
 .08417296,0.07747378,0.00000028,0.00000079,0.00000062,0.00000075,-0.00
 000044,0.00000063,-0.00000023,-0.00000026,0.00000022,0.00000144,0.0000
 0222,0.00000325,-0.00000017,0.00000177,-0.00000030,-0.00000054,0.00000
 012,-0.00000029,0.00000050,-0.00000198,-0.00000089,0.00000177,-0.00000
 085,0.00000026,-0.00000051,-0.00000034,0.00000039,0.00000027,0.0000011
 0,0.00000053,-0.00002847,0.00000562,-0.00002152,-0.00000007,0.00000170
 ,0.00007535,-0.04500414,0.08386240,0.00000093,-0.00000086,0.00000247,0
 .,0.00000894,0.00000184,0.00000100,0.00000199,-0.00000354,0.00003652,-
 0.00003011,0.00000900,-0.00002906,0.00001001,-0.00000676,-0.00000965,0
 .00002037,-0.00000987,0.00000271,-0.00000179,-0.00000840,-0.00000796,0
 .00000417,-0.00000384,0.00005317,-0.00002757,0.00003195,-0.00000979,-0
 .00000197,0.00002104,0.00001545,-0.00000869,0.00002155,-0.00010084,0.0
 0004542,-0.00001633,0.00021849,-0.00003446,-0.00019453,-0.00000672,-0.
 00001069,0.00004670,0.00025250,-0.00022050,0.00076836,0.00347371,-0.00
 110186,-0.00176462,0.00898759,-0.00599310,0.01218536,-0.00156801,0.000
 56486,0.00100979,-0.10289763,0.08291307,-0.26577425,-0.00000012,-0.000
 00094,-0.00000074,-0.00000081,0.00000067,-0.00000051,0.00000025,0.0000
 0010,0.00000011,-0.00000097,-0.00000168,-0.00000264,-0.00000010,-0.000
 00180,0.00000011,0.00000030,0.00000016,0.00000052,-0.00000042,0.000001
 65,0.00000039,-0.00000081,0.00000069,-0.00000040,0.00000220,-0.0000013
 9,0.00000260,-0.00000111,0.00000048,-0.00000044,0.00010339,-0.00005239
 ,0.00003944,-0.00001385,0.00000570,0.00001624,0.10255327,-0.08598675,0
 .27583535,0.00000222,-0.00000279,0.00000784,-0.00000201,0.00002797,0.0
 0000753,-0.00000029,0.00000705,-0.00001085,0.00010342,-0.00008945,0.00
 001760,-0.00007638,0.00002916,-0.00007507,-0.00002493,0.00006136,-0.00
 002874,-0.00007514,0.00002467,-0.00002049,0.00002712,-0.00002052,0.000
 05961,0.00004135,0.00003904,-0.00011093,-0.00000851,0.00003494,0.00015
 025,0.00006007,-0.00002042,0.00003640,-0.00010616,0.00008090,-0.000182
 39,0.00047022,-0.00076388,0.00046938,-0.00031212,0.00014554,-0.0000709
 8,-0.00205671,-0.00004803,-0.00073995,0.00427455,-0.00022434,0.0077651
 1,-0.01311604,0.03294895,0.02401244,0.00005127,0.00006316,-0.00236124,
 -0.05453389,-0.03060356,-0.02775206,-0.00000190,-0.00000281,-0.0000022
 0,-0.00000131,0.00000079,-0.00000176,0.00000019,0.00000111,-0.00000054
 ,-0.00000373,-0.00000628,-0.00000872,-0.00000021,-0.00000482,0.0000005
 5,0.00000098,0.00000027,0.00000113,0.00000004,0.00000613,0.00000210,-0
 .00000488,0.00000127,-0.00000092,0.00000170,0.00000331,-0.00000252,0.0
 0000360,0.00000236,0.00000018,0.00000524,-0.00002418,0.00003834,0.0003
 8424,0.00011604,-0.00006221,0.00046630,-0.01081110,-0.00686720,0.06347
 590,-0.00000032,0.00000084,-0.00000218,-0.00000049,-0.00000486,-0.0000
 0233,0.00000114,-0.00000160,0.00000210,-0.00001514,0.00001043,-0.00000
 200,0.00000510,-0.00000388,0.00002705,0.00000433,-0.00000701,0.0000048
 5,0.00003406,-0.00001163,0.00000107,-0.00001784,0.00001353,-0.00003172
 ,0.00002990,-0.00003115,0.00007956,-0.00001302,-0.00000394,-0.00003694
 ,-0.00001420,0.00000474,-0.00000150,-0.00005192,0.00001832,0.00004909,
 -0.00007191,0.00020488,-0.00023884,0.00006009,-0.00002935,0.00005433,0
 .00049449,-0.00032225,0.00069161,-0.00096723,0.00134140,-0.00620170,0.
 00938649,-0.00693895,-0.00421314,-0.00145982,0.00057345,0.00214745,-0.
 02393882,-0.20101079,-0.13309151,0.00000076,0.00000052,0.00000021,0.00
 000002,0.00000010,0.00000041,-0.00000001,-0.00000063,0.00000067,0.0000
 0064,0.00000124,0.00000145,0.00000019,0.00000057,0.,-0.00000056,0.0000
 0022,0.00000022,-0.00000007,-0.00000116,-0.00000100,0.00000106,-0.0000
 0092,-0.00000034,0.00000197,-0.00000348,0.00000276,-0.00000342,0.00000
 106,-0.00000066,0.00010957,-0.00006953,0.00002605,-0.00023243,-0.00004
 881,0.00004389,-0.00004111,0.01139216,0.00841537,0.02020449,0.21097071
 ,-0.00000194,0.00000203,-0.00000561,-0.00000040,-0.00001969,-0.0000050
 3,-0.00000034,-0.00000535,0.00000818,-0.00007595,0.00005897,-0.0000159
 4,0.00006099,-0.00002387,0.00002583,0.00002024,-0.00003984,0.00002005,
 0.00001213,-0.00000394,0.00001874,0.00000720,-0.00000161,-0.00001053,-
 0.00007167,0.00004648,0.00000300,0.00004613,-0.00000635,-0.00006070,-0
 .00004092,0.00001827,-0.00002802,0.00014767,-0.00007054,0.00003943,-0.
 00020733,0.00013420,-0.00009328,0.00011507,-0.00003746,0.00002423,0.00
 034849,-0.00038795,-0.00000483,-0.00198137,0.00192699,-0.00048006,0.00
 741330,-0.00542403,-0.00350223,0.00009139,-0.00029566,0.00063867,-0.02
 120832,-0.13542113,-0.17626853,0.00000124,0.00000225,0.00000174,0.0000
 0108,-0.00000085,0.00000120,-0.00000020,-0.00000069,0.00000007,0.00000
 219,0.00000410,0.00000595,0.00000060,0.00000364,-0.00000015,-0.0000005
 2,-0.00000045,-0.00000105,-0.00000002,-0.00000414,-0.00000114,0.000002
 16,-0.00000259,0.00000061,-0.00000214,0.00000192,-0.00000116,0.0000015
 7,0.00000165,0.00000032,-0.00016361,0.00003817,-0.00005641,-0.00012743
 ,-0.00010263,0.00003749,-0.00301506,-0.02043540,-0.01475542,0.01820289
 ,0.14945596,0.18422885,0.00000171,-0.00000227,0.00000739,-0.00000110,0
 .00002363,0.00000689,0.00000059,0.00000511,-0.00000932,0.00009560,-0.0
 0008136,0.00001695,-0.00006350,0.00003586,-0.00007360,-0.00002297,0.00
 006133,-0.00002738,-0.00007744,0.00002839,-0.00001755,0.00002971,-0.00
 002573,0.00006528,0.00000272,0.00000366,-0.00014176,-0.00003958,-0.000
 05958,0.00012411,0.00005547,-0.00002653,0.00002998,-0.00005926,0.00005
 846,-0.00016945,0.00071191,0.00001680,0.00065192,-0.00027851,0.0001350
 3,-0.00008995,-0.00136785,0.00143519,-0.00077148,0.00248354,-0.0050038
 7,0.00916675,-0.03469075,-0.01429937,0.01222484,0.00136587,0.00053900,
 -0.00308041,-0.11745933,-0.10374089,0.04833877,-0.00000125,-0.00000227
 ,-0.00000166,-0.00000152,0.00000085,-0.00000166,0.00000039,0.00000093,
 -0.00000077,-0.00000311,-0.00000510,-0.00000727,0.00000001,-0.00000434
 ,0.00000043,0.00000130,0.00000003,0.00000067,-0.00000072,0.00000513,0.
 00000232,-0.00000414,0.00000312,-0.00000017,-0.00000237,-0.00000161,-0
 .00000485,0.00000185,-0.00000618,-0.00000080,-0.00005466,0.00001186,0.
 00001483,0.00024484,-0.00036849,-0.00017468,0.01046562,0.01073623,-0.0
 0418858,0.00095329,-0.00350510,0.00042646,0.13771276,-0.00000096,0.000
 00098,-0.00000269,-0.00000055,-0.00000983,-0.00000275,0.00000040,-0.00
 000305,0.00000456,-0.00004020,0.00002910,-0.00000602,0.00002778,-0.000
 01545,0.00002381,0.00001084,-0.00002179,0.00001005,0.00002423,-0.00000
 883,0.00000750,-0.00000819,0.00000734,-0.00001587,-0.00000705,0.000023
 27,0.00003072,0.00002032,0.00003068,-0.00004910,-0.00001640,0.00001026
 ,-0.00001462,0.00006296,-0.00003692,0.00008161,-0.00036557,-0.00004064
 ,-0.00020779,0.00014447,-0.00005023,0.00000830,0.00043722,-0.00091903,
 -0.00019632,-0.00013149,0.00235013,-0.00035756,0.01297030,0.01435134,-
 0.00659346,0.00086582,-0.00039448,-0.00001710,-0.11240081,-0.22199498,
 0.08214078,0.00000096,0.00000126,0.00000103,0.00000031,-0.00000023,0.0
 0000068,0.00000010,-0.00000044,-0.00000005,0.00000116,0.00000219,0.000
 00312,0.00000028,0.00000183,-0.00000014,-0.00000004,-0.00000035,-0.000
 00071,-0.00000043,-0.00000254,-0.00000050,0.00000075,-0.00000234,0.000
 00008,-0.00000092,0.00000142,0.00000072,0.00000170,0.00000320,0.000001
 35,-0.00004740,-0.00000818,-0.00003664,-0.00003935,0.00005576,0.000014
 79,-0.00439672,-0.00591126,0.00148847,-0.01116004,-0.01604596,0.010579
 04,0.11404750,0.22859273,-0.00000164,0.00000167,-0.00000505,0.00000192
 ,-0.00001923,-0.00000401,-0.00000158,-0.00000397,0.00000694,-0.0000776
 4,0.00006976,-0.00001681,0.00006553,-0.00002465,0.00002550,0.00001836,
 -0.00004890,0.00002142,0.00001076,-0.00000258,0.00001980,0.00000942,-0
 .00000168,-0.00000730,-0.00009124,0.00002687,-0.00001209,0.00004915,-0
 .00000747,-0.00006476,-0.00004160,0.00001849,-0.00003007,0.00017192,-0
 .00007583,0.00004634,-0.00026771,0.00007765,-0.00008864,0.00012216,-0.
 00006314,0.00001111,0.00050560,-0.00009158,-0.00009672,-0.00254442,0.0
 0034813,0.00030769,0.00966452,0.00249491,-0.00322338,0.00068811,-0.000
 13235,0.00028661,0.05209801,0.08022746,-0.09237367,0.00000052,0.000001
 77,0.00000139,0.00000148,-0.00000102,0.00000113,-0.00000040,-0.0000003
 6,0.00000004,0.00000241,0.00000394,0.00000591,-0.00000002,0.00000359,-
 0.00000039,-0.00000076,-0.00000013,-0.00000090,0.00000075,-0.00000374,
 -0.00000121,0.00000284,-0.00000120,0.00000097,-0.00000371,0.00000058,-
 0.00000204,0.00000133,-0.00000113,0.00000012,-0.00016897,0.00011056,-0
 .00005643,-0.00000691,0.00011917,0.00007047,0.01457493,0.02103761,-0.0
 0744927,-0.01246864,-0.01717951,0.01023352,-0.06231265,-0.08689711,0.0
 9238969,0.00005344,-0.00051016,0.00024421,0.00033996,-0.00448620,0.001
 90504,-0.00052951,0.00015064,-0.00149363,-0.00198186,-0.00173627,-0.00
 596845,-0.00000030,0.00177965,0.00061504,-0.00110274,-0.00883633,-0.00
 425499,-0.00059946,-0.00005424,-0.00019089,-0.00007270,-0.00006201,0.0
 0014696,-0.00000196,0.00008697,-0.00003341,-0.00017093,0.00003061,-0.0
 0017005,-0.00016927,0.00023878,0.00020205,-0.00004186,-0.00004038,-0.0
 0003445,-0.00011717,0.00008697,-0.00000877,-0.00000538,-0.00013731,0.0
 0002327,0.00006608,-0.00004141,0.00001526,-0.00008501,0.00007028,-0.00
 003283,0.00005664,-0.00003898,0.00003779,0.00002392,-0.00003278,0.0000
 1371,-0.00003111,0.00001899,0.00000170,-0.00010619,-0.00004486,-0.0001
 4747,-0.00002939,0.00001593,-0.00000963,0.00001431,0.00001608,-0.00000
 052,0.00024158,0.00008588,0.00019252,0.00001588,0.00010539,0.00000438,
 -0.00001042,0.00001767,0.00008099,0.00002681,0.00000294,0.00001816,0.0
 0013923,-0.00004582,-0.00001088,-0.00004424,0.00007135,0.00001194,0.00
 016049,0.00010557,-0.00002393,-0.00001123,0.00003863,-0.00000081,0.000
 00436,0.00001818,-0.00001028,0.00000214,-0.00000047,0.00000217,0.00000
 251,-0.00000089,-0.00000357,0.00000088,-0.00000098,-0.00000182,0.00396
 252,0.00004171,-0.00050990,0.00033777,-0.00203306,-0.00521870,0.002867
 43,-0.00076802,0.00074442,-0.00157829,0.00030697,-0.02417408,-0.021620
 12,-0.00007120,-0.00021794,0.00102532,-0.01067358,-0.22526933,-0.19824
 664,-0.00013760,-0.00026857,-0.00060174,-0.00024993,0.00019310,0.00000
 147,0.00046873,-0.00032434,0.00020262,0.00001925,-0.00022191,0.0004170
 2,0.00003214,0.00000428,0.00056091,-0.00054843,0.00029105,-0.00029297,
 0.00049282,-0.00025664,0.00043150,-0.00040711,0.00020755,-0.00020234,-
 0.00063002,0.00026872,-0.00017111,0.00064787,-0.00025215,0.00000452,-0
 .00033883,0.00016809,-0.00018629,-0.00021990,0.00006964,0.00002800,0.0
 0016800,-0.00005758,-0.00002066,-0.00007569,0.00001100,-0.00017502,0.0
 0000963,0.00000178,0.00001493,0.00002579,-0.00000187,-0.00001626,-0.00
 014618,0.00017929,0.00005450,0.00068345,0.00035642,0.00059731,-0.00009
 415,0.00000347,0.00008076,0.00009671,0.00001281,0.00000250,0.00010067,
 -0.00002706,-0.00007060,-0.00004919,0.00011527,-0.00000338,0.00008206,
 0.00000651,0.00017582,0.00018124,-0.00003302,-0.00005116,0.00000162,0.
 00000311,0.00006602,-0.00001267,0.00000762,-0.00000558,-0.00001628,0.0
 0000176,0.00001054,-0.00001541,0.00000504,0.00001344,0.01312860,0.2541
 8214,-0.00009983,0.00046589,-0.00034891,0.00050813,0.00309681,-0.00216
 589,0.00081354,0.00027487,0.00177540,0.00119884,0.02046241,0.01238701,
 -0.00020378,0.00157060,-0.00096982,-0.01038108,-0.24246185,-0.29167370
 ,0.00008920,-0.00005444,-0.00042649,-0.00015968,-0.00001258,-0.0000609
 6,0.00028203,-0.00009206,0.00005324,-0.00020252,-0.00005806,-0.0000943
 7,-0.00025227,0.00017416,0.00063798,-0.00023784,0.00013785,-0.00023890
 ,0.00000053,-0.00002525,0.00027719,-0.00006309,-0.00006222,-0.00006034
 ,-0.00014654,0.00006657,-0.00006891,0.00014118,-0.00004836,0.00003556,
 -0.00007812,0.00003794,-0.00005823,-0.00004612,0.00001479,-0.00001937,
 0.00003443,-0.00001094,-0.00000151,0.00010438,0.00007655,0.00015576,0.
 00001393,-0.00002104,0.00000434,-0.00001198,-0.00000767,0.00001725,0.0
 0006499,0.00004116,-0.00003805,-0.00029684,0.00008732,0.00015920,-0.00
 003040,-0.00018996,-0.00004263,-0.00005504,-0.00008354,-0.00003804,0.0
 0001802,0.00007251,0.00005916,-0.00002977,0.00000115,-0.00000317,0.000
 11247,0.00019029,-0.00001756,0.00005117,-0.00000654,-0.00001291,-0.000
 00818,0.00001030,0.00002706,-0.00000342,0.00000248,-0.00000128,-0.0000
 0394,-0.00000074,0.00000220,-0.00000358,0.00000183,0.00000411,0.008881
 18,0.21634976,0.28074561\\0.00000212,0.00000313,0.00000394,0.00000099,
 0.00000006,0.00000957,-0.00000441,-0.00000458,-0.00000793,0.00001123,-
 0.00001699,0.00000311,-0.00001640,0.00000818,-0.00001302,-0.00000215,0
 .00001369,-0.00000368,0.00000622,-0.00000236,0.00000578,0.00000002,0.0
 0000295,-0.00000161,0.00000435,0.00000019,0.00000405,-0.00000227,0.000
 00344,-0.00000105,0.00000669,0.00000070,0.00000732,0.00000032,-0.00000
 395,0.00000071,0.00000785,0.00000727,0.00000583,-0.00000346,-0.0000098
 2,-0.00000070,-0.00001125,0.00000562,-0.00000088,0.00000983,0.00000114
 ,-0.00000637,-0.00000298,0.00000066,0.00000139,-0.00000278,-0.00000032
 ,0.00000263,0.00000286,-0.00000155,-0.00000128,0.00000024,-0.00000016,
 0.00000048,-0.00000016,0.00000049,-0.00000047,-0.00000003,-0.00000013,
 -0.00000200,-0.00000019,-0.00000132,-0.00000095,-0.00000020,0.00000225
 ,0.,0.00000024,0.00000092,0.00000073,-0.00000090,0.00000126,0.00000057
 ,-0.00000091,-0.00000121,-0.00000083,-0.00000026,-0.00000041,-0.000000
 19,-0.00000091,-0.00000044,-0.00000070,-0.00000458,-0.00000344,-0.0000
 0314,0.00000086,-0.00000288,-0.00000042,0.00000029,-0.00000030,0.00000
 031,-0.00000039,-0.00000030,-0.00000010,-0.00000022,0.00000025,-0.0000
 0014,0.00000035,-0.00000205,-0.00000096\\\@


 "THE ACADEMIC HIERARCHY"


 THE PRESIDENT:
   LEAPS TALL BUILDINGS IN A SINGLE BOUND,
     IS MORE POWERFUL THAN A LOCOMOTIVE,
       IS FASTER THAN A SPEEDING BULLET,
         WALKS ON WATER,
           GIVES POLICY TO GOD.

 THE VICE PRESIDENT FOR ACADEMIC AFFAIRS:
   LEAPS SHORT BUILDINGS IN A SINGLE BOUND,
     IS MORE POWERFUL THAN A SWITCH ENGINE,
       IS JUST AS FAST AS A SPEEDING BULLET,
         WALKS ON WATER IF SEA IS CALM,
           TALKS WITH GOD.

 PROFESSOR:
   LEAPS SHORT BUILDINGS WITH A RUNNING START AND FAVORABLE WINDS,
     IS ALMOST AS POWERFUL AS A SWITCH ENGINE,
       CAN FIRE A SPEEDING BULLET,
         WALKS ON WATER IN AN INDOOR SWIMMING POOL,
          TALKS WITH GOD IF SPECIAL REQUEST IS APPROVED.

 ASSOCIATE PROFESSOR:
   BARELY CLEARS A QUONSET HUT,
     LOSES TUG OF WAR WITH LOCOMOTIVE,
       MISFIRES FREQUENTLY,
         SWIMS WELL,
           IS OCCASIONALLY ADDRESSED BY GOD.

 ASSISTANT PROFESSOR:
   MAKES HIGH MARKS ON WALLS WHEN TRYING TO LEAP TALL BUILDINGS,
     IS RUN OVER BY LOCOMOTIVES,
       CAN SOMETIMES HANDLE A GUN WITHOUT INFLICTING SELF INJURY,
         DOG PADDLES,
           TALKS TO ANIMALS.

 GRADUATE STUDENT:
   RUNS INTO BUILDINGS,
     RECOGNIZES LOCOMOTIVES TWO OUT OF THREE TIMES,
       IS NOT ISSUED AMMUNITION,
         CAN STAY AFLOAT WITH A LIFE JACKET,
           TALKS TO WALLS.

 UNDERGRADUATE AND WORK STUDY STUDENT:
   FALLS OVER DOORSTEP WHEN TRYING TO ENTER BUILDINGS,
     SAYS, "LOOK AT THE CHOO-CHOO,"
       WETS HIMSELF WITH A WATER PISTOL,
        PLAYS IN MUD PUDDLES,
          MUMBLES TO HIMSELF.

 DEPARTMENT SECRETARY:
   LIFTS TALL BUILDINGS AND WALKS UNDER THEM,
     KICKS LOCOMOTIVES OFF THE TRACKS,
       CATCHES SPEEDING BULLETS IN HER TEETH AND EATS THEM,
         FREEZES WATER WITH A SINGLE GLANCE,
           IS GOD.
 Job cpu time:       0 days  0 hours 43 minutes 23.2 seconds.
 Elapsed time:       0 days  0 hours  1 minutes 49.4 seconds.
 File lengths (MBytes):  RWF=    441 Int=      0 D2E=      0 Chk=     10 Scr=      1
 Normal termination of Gaussian 16 at Mon Oct 14 13:48:38 2019.
real 446.41
user 10357.75
sys 46.39
Machine:
brown-a375
brown-a375
brown-a375
brown-a375
brown-a375
brown-a375
brown-a375
brown-a375
brown-a375
brown-a375
brown-a375
brown-a375
brown-a375
brown-a375
brown-a375
brown-a375
brown-a375
brown-a375
brown-a375
brown-a375
brown-a375
brown-a375
brown-a375
brown-a375
